&FCI NORB=8,NELEC=0,MS2=0
ORBSYM=1,1,1,1,
ISYM=1,
/
      6.83189641009885106904e-01 	 1 1 1 1
      1.05723139344215070340e-02 	 1 1 2 1
      7.07456894057202356763e-02 	 1 1 2 2
      4.37685129593161290074e-02 	 1 1 3 1
     -1.26967940286212867262e-02 	 1 1 3 2
      4.49641755882750904227e-01 	 1 1 3 3
     -5.43978660615820550084e-03 	 1 1 4 1
     -4.11255555299080283183e-05 	 1 1 4 2
     -3.54963322654764032449e-02 	 1 1 4 3
      2.64757034749929787143e-01 	 1 1 4 4
      4.90312191157807886199e-02 	 1 1 5 1
     -3.63150370684832413115e-02 	 1 1 5 2
     -3.49570281993530698750e-02 	 1 1 5 3
     -1.58235048403110936666e-02 	 1 1 5 4
      5.26035809693674027976e-01 	 1 1 5 5
      1.25134493014768428953e-02 	 1 1 6 1
     -6.02987370426822689995e-03 	 1 1 6 2
     -3.94044451848997306920e-02 	 1 1 6 3
     -3.92757959891878311032e-02 	 1 1 6 4
     -1.83513150808863115260e-02 	 1 1 6 5
      1.36172938731995568640e-01 	 1 1 6 6
      3.71943065101565124159e-03 	 1 1 7 1
      2.13531721240133587347e-02 	 1 1 7 2
      1.41143393847602219987e-02 	 1 1 7 3
      1.39601852081122825705e-02 	 1 1 7 4
      3.68600544832684909324e-02 	 1 1 7 5
      1.24725196918663242679e-03 	 1 1 7 6
      1.80196017362368621217e-01 	 1 1 7 7
      8.38804387673076495835e-02 	 1 1 8 1
      7.32815743954994339160e-03 	 1 1 8 2
     -1.60793963481296389717e-02 	 1 1 8 3
      4.94354960091910201198e-03 	 1 1 8 4
     -1.63078854782632842735e-02 	 1 1 8 5
      1.07800062365537296927e-02 	 1 1 8 6
     -1.34458103863922622499e-03 	 1 1 8 7
      3.36393345623115402887e-01 	 1 1 8 8
      1.05723139344214810131e-02 	 2 1 1 1
      1.57996914417776572470e-03 	 2 1 2 1
     -1.81838225998916377599e-03 	 2 1 2 2
      1.35193424900232456697e-03 	 2 1 3 1
     -1.14848863235798262679e-03 	 2 1 3 2
      8.18356960427406472658e-03 	 2 1 3 3
      3.48838732383930814548e-04 	 2 1 4 1
     -2.23598804953905847556e-05 	 2 1 4 2
     -1.66775586205039237295e-03 	 2 1 4 3
      3.48162338817710080227e-03 	 2 1 4 4
      1.24104923214265333575e-03 	 2 1 5 1
     -2.48088683600145628455e-03 	 2 1 5 2
     -1.31628047145473416057e-03 	 2 1 5 3
     -7.65819269033688712796e-04 	 2 1 5 4
      8.83885563550308381298e-03 	 2 1 5 5
      7.28360316413429690480e-04 	 2 1 6 1
     -6.50317450648166652319e-04 	 2 1 6 2
     -2.18847988759751730520e-03 	 2 1 6 3
     -2.51998182629118794643e-03 	 2 1 6 4
     -1.01776839104775803507e-03 	 2 1 6 5
     -7.54620070413159144476e-04 	 2 1 6 6
     -5.88428546851713107392e-04 	 2 1 7 1
      2.03835323112014441677e-03 	 2 1 7 2
      8.88597851264030487786e-04 	 2 1 7 3
      5.92809819795491062776e-04 	 2 1 7 4
      1.98160522594432748217e-03 	 2 1 7 5
      3.96995412559880819434e-04 	 2 1 7 6
      2.64936633324112155025e-03 	 2 1 7 7
      1.81292035829201322872e-03 	 2 1 8 1
     -5.04269090260767507972e-04 	 2 1 8 2
     -3.98910404971922574226e-04 	 2 1 8 3
      1.94297432129817619715e-04 	 2 1 8 4
     -5.71789259794655362577e-04 	 2 1 8 5
      1.84588069288633087718e-04 	 2 1 8 6
      1.55686422107224973349e-04 	 2 1 8 7
      6.16445477109686494621e-03 	 2 1 8 8
      7.07456894057201524095e-02 	 2 2 1 1
     -1.81838225998925159636e-03 	 2 2 2 1
      4.26725612624841099674e-01 	 2 2 2 2
     -2.00822689954380517730e-02 	 2 2 3 1
      2.69869882006055572879e-03 	 2 2 3 2
      4.36926416098113445940e-02 	 2 2 3 3
      5.68069732416580982365e-03 	 2 2 4 1
     -2.40014837510219101319e-03 	 2 2 4 2
      2.03345022587236960721e-02 	 2 2 4 3
      1.27690273907824253241e-01 	 2 2 4 4
     -2.49650768070433515256e-02 	 2 2 5 1
      1.15460332725332986969e-02 	 2 2 5 2
      1.87018035067238776181e-02 	 2 2 5 3
      7.73102713377039462567e-03 	 2 2 5 4
     -9.58550599360738497801e-03 	 2 2 5 5
     -4.36116043107882649099e-03 	 2 2 6 1
     -6.19136333697673391790e-04 	 2 2 6 2
      2.59298021157659541736e-02 	 2 2 6 3
      3.13370655009390722268e-02 	 2 2 6 4
      1.35875679533566523505e-02 	 2 2 6 5
      2.17692157822804405187e-01 	 2 2 6 6
     -5.24877224914022891961e-03 	 2 2 7 1
     -2.59142452671006374293e-03 	 2 2 7 2
     -6.88518545250244463213e-03 	 2 2 7 3
     -5.87863836139996577546e-03 	 2 2 7 4
     -2.08238104939234246193e-02 	 2 2 7 5
     -3.86020535906575305851e-03 	 2 2 7 6
      2.64026626295895405772e-01 	 2 2 7 7
     -4.13585548833391297707e-02 	 2 2 8 1
      7.86486493127641021067e-04 	 2 2 8 2
      8.54929966362211711528e-03 	 2 2 8 3
     -1.12643681322691039531e-02 	 2 2 8 4
      8.02788673113065051612e-03 	 2 2 8 5
     -1.00212085667642676612e-02 	 2 2 8 6
      8.16782803877795504643e-03 	 2 2 8 7
      1.60190549782536689749e-01 	 2 2 8 8
      4.37685129593160943129e-02 	 3 1 1 1
      1.35193424900232651853e-03 	 3 1 2 1
     -2.00822689954380587118e-02 	 3 1 2 2
      1.07437803318762604976e-02 	 3 1 3 1
     -2.90199973369206342538e-03 	 3 1 3 2
      5.84874641548938783986e-02 	 3 1 3 3
     -7.82603791239509880701e-04 	 3 1 4 1
     -4.67878135988067508574e-04 	 3 1 4 2
     -6.77126844966010298099e-03 	 3 1 4 3
      7.90642748521622369673e-03 	 3 1 4 4
      4.89167166111167169701e-03 	 3 1 5 1
     -5.69177646448581521510e-03 	 3 1 5 2
     -5.69273498300566262176e-03 	 3 1 5 3
     -2.14786764558960252894e-03 	 3 1 5 4
      4.01525569405910276455e-02 	 3 1 5 5
      1.33168668092439705652e-03 	 3 1 6 1
     -1.62643917462494506931e-03 	 3 1 6 2
     -7.62228281940451231347e-03 	 3 1 6 3
     -6.62949582550899363387e-03 	 3 1 6 4
     -2.86861646764682625896e-03 	 3 1 6 5
     -1.21149252309931364235e-02 	 3 1 6 6
      9.40065751638911395807e-04 	 3 1 7 1
      4.69811650753236727251e-03 	 3 1 7 2
      2.47528318362188505530e-03 	 3 1 7 3
      1.96119838469606920517e-03 	 3 1 7 4
      5.42035341926886717057e-03 	 3 1 7 5
      6.92955571293648979470e-04 	 3 1 7 6
     -1.65242006616010597003e-04 	 3 1 7 7
      1.03252636290131084157e-02 	 3 1 8 1
      1.46811852275540409563e-03 	 3 1 8 2
     -2.35131351267859473042e-03 	 3 1 8 3
      1.86462588877685719532e-03 	 3 1 8 4
     -2.49408170189787661494e-03 	 3 1 8 5
      1.50823628485544309133e-03 	 3 1 8 6
     -7.88454797837804025572e-04 	 3 1 8 7
      1.18356557718664063411e-02 	 3 1 8 8
     -1.26967940286212832568e-02 	 3 2 1 1
     -1.14848863235799108357e-03 	 3 2 2 1
      2.69869882006055225934e-03 	 3 2 2 2
     -2.90199973369206299170e-03 	 3 2 3 1
      2.35952517462967130413e-03 	 3 2 3 2
     -2.52008481472490684927e-02 	 3 2 3 3
     -1.76670414437991900791e-04 	 3 2 4 1
      9.22875431644049797411e-04 	 3 2 4 2
      3.39891176357913146755e-03 	 3 2 4 3
     -2.95280426544357018151e-03 	 3 2 4 4
     -2.34694558566696156315e-03 	 3 2 5 1
      3.97670930292071816980e-03 	 3 2 5 2
      2.56779481924558367761e-03 	 3 2 5 3
      1.26684765738102589859e-03 	 3 2 5 4
     -1.46712551446041197106e-02 	 3 2 5 5
     -9.23745135064990780319e-04 	 3 2 6 1
      2.07025913737848583224e-03 	 3 2 6 2
      4.04224971627901302762e-03 	 3 2 6 3
      3.65595530314944154246e-03 	 3 2 6 4
      1.69204606342591773113e-03 	 3 2 6 5
      6.27397749034511696686e-03 	 3 2 6 6
      3.42224588433468423186e-04 	 3 2 7 1
     -3.80963734614195997930e-03 	 3 2 7 2
     -1.35885847298162359964e-03 	 3 2 7 3
     -1.10101447640741003514e-03 	 3 2 7 4
     -2.96186354757142430993e-03 	 3 2 7 5
     -7.82932500995737806412e-04 	 3 2 7 6
     -2.82923695768445143672e-03 	 3 2 7 7
     -3.63784193953307563585e-03 	 3 2 8 1
     -7.76274105088554586263e-04 	 3 2 8 2
      9.84274650102040819452e-04 	 3 2 8 3
     -6.08804738505139102223e-04 	 3 2 8 4
      8.93695833119488016946e-04 	 3 2 8 5
     -6.21047612939351189459e-04 	 3 2 8 6
      4.30256474364502439819e-04 	 3 2 8 7
     -5.83840409679087322253e-03 	 3 2 8 8
      4.49641755882750959739e-01 	 3 3 1 1
      8.18356960427406819603e-03 	 3 3 2 1
      4.36926416098113445940e-02 	 3 3 2 2
      5.84874641548938922764e-02 	 3 3 3 1
     -2.52008481472490719622e-02 	 3 3 3 2
      8.04574428151227594164e-01 	 3 3 3 3
     -3.65561307318031884078e-03 	 3 3 4 1
      2.31903734318123335226e-04 	 3 3 4 2
     -5.34382089473481314279e-02 	 3 3 4 3
      2.20816801002218066063e-01 	 3 3 4 4
      3.42731345855079513885e-02 	 3 3 5 1
     -3.21298829188432430448e-02 	 3 3 5 2
     -4.10100350649333852959e-02 	 3 3 5 3
     -1.27233377563579653363e-02 	 3 3 5 4
      4.33293522336765990488e-01 	 3 3 5 5
      7.99627153816410973786e-03 	 3 3 6 1
     -5.98720203389433054675e-03 	 3 3 6 2
     -5.87026805503861881519e-02 	 3 3 6 3
     -3.49724428209259169398e-02 	 3 3 6 4
     -1.59373122304669566363e-02 	 3 3 6 5
      1.03820712983275331709e-01 	 3 3 6 6
      2.90122061243430371877e-03 	 3 3 7 1
      2.30415999196546816830e-02 	 3 3 7 2
      1.69294887937207969020e-02 	 3 3 7 3
      1.28875225010286146438e-02 	 3 3 7 4
      3.30344218793975005766e-02 	 3 3 7 5
      2.30000955704112329189e-03 	 3 3 7 6
      1.64395290330733745421e-01 	 3 3 7 7
      6.22968489463248467630e-02 	 3 3 8 1
      7.49442692465743069696e-03 	 3 3 8 2
     -1.77582520915383276772e-02 	 3 3 8 3
      7.80246711444086346599e-03 	 3 3 8 4
     -1.49606835969065925240e-02 	 3 3 8 5
      9.53948041792397789795e-03 	 3 3 8 6
     -7.96674159814327281608e-04 	 3 3 8 7
      2.61177707713578510784e-01 	 3 3 8 8
     -5.43978660615818641888e-03 	 4 1 1 1
      3.48838732383927345101e-04 	 4 1 2 1
      5.68069732416579334378e-03 	 4 1 2 2
     -7.82603791239510422802e-04 	 4 1 3 1
     -1.76670414437991548425e-04 	 4 1 3 2
     -3.65561307318031363661e-03 	 4 1 3 3
      1.72020428597889152647e-03 	 4 1 4 1
     -1.28644437879012505732e-04 	 4 1 4 2
     -5.48795869781920566018e-04 	 4 1 4 3
      5.61402815512283479005e-03 	 4 1 4 4
     -1.20351870293861312571e-03 	 4 1 5 1
     -4.18461246511035288992e-04 	 4 1 5 2
      2.71659951598072959417e-04 	 4 1 5 3
     -3.25466262597517844764e-04 	 4 1 5 4
     -4.81067003851472566045e-03 	 4 1 5 5
      5.22363442510379439969e-04 	 4 1 6 1
     -9.90719490757306577196e-05 	 4 1 6 2
     -6.55934445492974702377e-04 	 4 1 6 3
     -8.81085146674523097578e-04 	 4 1 6 4
     -2.30060622968022900764e-04 	 4 1 6 5
      6.20402303262659361727e-03 	 4 1 6 6
     -1.11022112400238842991e-03 	 4 1 7 1
      1.03549012468884954474e-03 	 4 1 7 2
      2.33825536669887191783e-04 	 4 1 7 3
      3.66969924258778279588e-05 	 4 1 7 4
      1.71396884672315883086e-04 	 4 1 7 5
     -2.03459950143126860390e-05 	 4 1 7 6
      4.25828243272639937050e-03 	 4 1 7 7
     -2.18550909906453172740e-03 	 4 1 8 1
     -2.44986420119254152440e-04 	 4 1 8 2
      2.35294546250254814519e-04 	 4 1 8 3
     -1.06912962495946594829e-03 	 4 1 8 4
      3.16917693548366742086e-04 	 4 1 8 5
     -4.91762616849780102683e-04 	 4 1 8 6
      8.53510687988730579710e-04 	 4 1 8 7
      6.50528037334782358037e-03 	 4 1 8 8
     -4.11255555299045588713e-05 	 4 2 1 1
     -2.23598804954150673959e-05 	 4 2 2 1
     -2.40014837510223741704e-03 	 4 2 2 2
     -4.67878135988061328622e-04 	 4 2 3 1
      9.22875431644059446810e-04 	 4 2 3 2
      2.31903734318120949981e-04 	 4 2 3 3
     -1.28644437879011882316e-04 	 4 2 4 1
      1.47210825473540092567e-03 	 4 2 4 2
      9.46196563492376950880e-04 	 4 2 4 3
     -4.87187836178589253611e-03 	 4 2 4 4
     -5.66708277746450156745e-04 	 4 2 5 1
      1.21980983337181261503e-03 	 4 2 5 2
      5.99824910228750115410e-04 	 4 2 5 3
      5.65918165193248076314e-04 	 4 2 5 4
     -1.79117561585871048514e-03 	 4 2 5 5
     -3.73391012426719311364e-04 	 4 2 6 1
      1.74763656375841267693e-03 	 4 2 6 2
      8.53962414140734503432e-04 	 4 2 6 3
      8.10884557912374282634e-04 	 4 2 6 4
      7.68536190320563130859e-04 	 4 2 6 5
      2.48643955771209743469e-03 	 4 2 6 6
      1.60718033393858467485e-06 	 4 2 7 1
     -1.36736509524074362036e-03 	 4 2 7 2
     -4.29758533601807895478e-04 	 4 2 7 3
     -6.64292671753410738679e-04 	 4 2 7 4
     -5.51726957828049726501e-04 	 4 2 7 5
     -6.12277242069410245102e-04 	 4 2 7 6
     -2.42176463842980551917e-04 	 4 2 7 7
     -9.11223904273267444609e-04 	 4 2 8 1
     -6.60780093933302351862e-04 	 4 2 8 2
      2.32731411676405657192e-04 	 4 2 8 3
     -3.56330959362216863773e-04 	 4 2 8 4
      1.53922798065215821889e-04 	 4 2 8 5
     -2.51776233427722622837e-04 	 4 2 8 6
      6.04572931196575521530e-04 	 4 2 8 7
      4.35768822808131747401e-04 	 4 2 8 8
     -3.54963322654764101838e-02 	 4 3 1 1
     -1.66775586205039887816e-03 	 4 3 2 1
      2.03345022587236960721e-02 	 4 3 2 2
     -6.77126844966010124627e-03 	 4 3 3 1
      3.39891176357913406963e-03 	 4 3 3 2
     -5.34382089473481175501e-02 	 4 3 3 3
     -5.48795869781920349177e-04 	 4 3 4 1
      9.46196563492380745587e-04 	 4 3 4 2
      8.65924677476615639593e-03 	 4 3 4 3
     -2.37400622244083661649e-02 	 4 3 4 4
     -6.11705404359811841242e-03 	 4 3 5 1
      7.36292165935253060949e-03 	 4 3 5 2
      5.82715620543592174863e-03 	 4 3 5 3
      2.87878142641895002490e-03 	 4 3 5 4
     -4.46703520365381509527e-02 	 4 3 5 5
     -2.26356852473873215725e-03 	 4 3 6 1
      2.27122200366740040894e-03 	 4 3 6 2
      9.65102351967909652397e-03 	 4 3 6 3
      9.78044970048567476051e-03 	 4 3 6 4
      3.84390356845929100083e-03 	 4 3 6 5
      8.82868815428743645979e-03 	 4 3 6 6
      4.69312754871568243737e-04 	 4 3 7 1
     -6.32436707948859627021e-03 	 4 3 7 2
     -2.66952729840365604944e-03 	 4 3 7 3
     -2.41108221078913283197e-03 	 4 3 7 4
     -6.76737407655639451598e-03 	 4 3 7 5
     -7.39112891089230934424e-04 	 4 3 7 6
     -3.88897617216437492191e-04 	 4 3 7 7
     -9.56608495208934733744e-03 	 4 3 8 1
     -1.35033512800030201448e-03 	 4 3 8 2
      2.55607241517223681207e-03 	 4 3 8 3
     -1.38775562025532719912e-03 	 4 3 8 4
      2.33887964711771778950e-03 	 4 3 8 5
     -2.04335466320698135034e-03 	 4 3 8 6
      7.79910657012180641261e-04 	 4 3 8 7
     -1.89302157987596142430e-02 	 4 3 8 8
      2.64757034749929620610e-01 	 4 4 1 1
      3.48162338817713506306e-03 	 4 4 2 1
      1.27690273907824336508e-01 	 4 4 2 2
      7.90642748521619073698e-03 	 4 4 3 1
     -2.95280426544358102353e-03 	 4 4 3 2
      2.20816801002217955041e-01 	 4 4 3 3
      5.61402815512282091226e-03 	 4 4 4 1
     -4.87187836178589860764e-03 	 4 4 4 2
     -2.37400622244083453483e-02 	 4 4 4 3
      4.56437413461694696526e-01 	 4 4 4 4
      1.53775430218128783544e-02 	 4 4 5 1
     -1.41844815505960033380e-02 	 4 4 5 2
     -1.05661033074374854923e-02 	 4 4 5 3
     -7.21370354408506272298e-03 	 4 4 5 4
      2.95563792672053404775e-01 	 4 4 5 5
      6.92654535749159805391e-03 	 4 4 6 1
     -6.82722843922893736501e-03 	 4 4 6 2
     -2.11384831383025773022e-02 	 4 4 6 3
     -3.54968868120847380609e-02 	 4 4 6 4
     -1.11340514498451201991e-02 	 4 4 6 5
      2.50842390638010503956e-01 	 4 4 6 6
     -5.14579826174426172014e-03 	 4 4 7 1
      6.29892545291103628929e-03 	 4 4 7 2
      5.34744520141234962185e-03 	 4 4 7 3
      1.29358754418109189038e-02 	 4 4 7 4
      1.56129713414127346827e-02 	 4 4 7 5
      1.74439574317580663176e-03 	 4 4 7 6
      1.75283212480971478664e-01 	 4 4 7 7
      2.27356078617989322554e-02 	 4 4 8 1
      1.07889644477402943390e-03 	 4 4 8 2
     -7.85876464921726400337e-03 	 4 4 8 3
     -2.16795072253485494873e-03 	 4 4 8 4
     -6.77291330002961419754e-03 	 4 4 8 5
      1.07894942277204104047e-02 	 4 4 8 6
     -5.22009552061295585730e-04 	 4 4 8 7
      2.98448795779596265376e-01 	 4 4 8 8
      4.90312191157808441311e-02 	 5 1 1 1
      1.24104923214266049149e-03 	 5 1 2 1
     -2.49650768070433445867e-02 	 5 1 2 2
      4.89167166111167082965e-03 	 5 1 3 1
     -2.34694558566696329788e-03 	 5 1 3 2
      3.42731345855079513885e-02 	 5 1 3 3
     -1.20351870293861204150e-03 	 5 1 4 1
     -5.66708277746448205181e-04 	 5 1 4 2
     -6.11705404359811060616e-03 	 5 1 4 3
      1.53775430218128211085e-02 	 5 1 4 4
      1.25161195997123466522e-02 	 5 1 5 1
     -8.12040552304129498173e-03 	 5 1 5 2
     -6.45197115583049339571e-03 	 5 1 5 3
     -3.12689895740622062631e-03 	 5 1 5 4
      7.83284078757394974790e-02 	 5 1 5 5
      1.91443715474584174457e-03 	 5 1 6 1
     -1.85568286525663282693e-03 	 5 1 6 2
     -7.22837062272393970908e-03 	 5 1 6 3
     -8.62878140788435853137e-03 	 5 1 6 4
     -4.28218436360453588024e-03 	 5 1 6 5
     -1.09020686810781183840e-02 	 5 1 6 6
      4.63854185938155640870e-04 	 5 1 7 1
      4.52634176468069172883e-03 	 5 1 7 2
      2.22253122706653509152e-03 	 5 1 7 3
      2.28548275758953941747e-03 	 5 1 7 4
      7.92620936401180684050e-03 	 5 1 7 5
      7.46377682614521114311e-04 	 5 1 7 6
     -5.01886405010488687028e-03 	 5 1 7 7
      1.17045947978688565094e-02 	 5 1 8 1
      1.12405404662117413411e-03 	 5 1 8 2
     -2.81352291135365068994e-03 	 5 1 8 3
      1.51604478252437713942e-03 	 5 1 8 4
     -2.74767604109980726271e-03 	 5 1 8 5
      2.24859594988343833299e-03 	 5 1 8 6
     -1.38258445793206798634e-03 	 5 1 8 7
      1.43802599385846625185e-02 	 5 1 8 8
     -3.63150370684831996781e-02 	 5 2 1 1
     -2.48088683600146278976e-03 	 5 2 2 1
      1.15460332725333039011e-02 	 5 2 2 2
     -5.69177646448582215399e-03 	 5 2 3 1
      3.97670930292071123091e-03 	 5 2 3 2
     -3.21298829188432361059e-02 	 5 2 3 3
     -4.18461246511034638471e-04 	 5 2 4 1
      1.21980983337180914558e-03 	 5 2 4 2
      7.36292165935253321157e-03 	 5 2 4 3
     -1.41844815505960172158e-02 	 5 2 4 4
     -8.12040552304130018590e-03 	 5 2 5 1
      1.17171201917508523149e-02 	 5 2 5 2
      6.37458733798928513237e-03 	 5 2 5 3
      3.34599484230115908068e-03 	 5 2 5 4
     -6.93846319366915736948e-02 	 5 2 5 5
     -2.42761887282465487620e-03 	 5 2 6 1
      3.71571189493533071690e-03 	 5 2 6 2
      8.99325968542643607029e-03 	 5 2 6 3
      1.07444047618994280302e-02 	 5 2 6 4
      4.88127355870824654327e-03 	 5 2 6 5
      1.21999525415942017964e-02 	 5 2 6 6
      9.75214223594241935017e-04 	 5 2 7 1
     -9.60648418919731947319e-03 	 5 2 7 2
     -2.86018723773216482914e-03 	 5 2 7 3
     -2.29759658797751504036e-03 	 5 2 7 4
     -9.37375007223355607988e-03 	 5 2 7 5
     -1.03482261603122767737e-03 	 5 2 7 6
     -4.02496068862902636742e-03 	 5 2 7 7
     -1.01049508184455402032e-02 	 5 2 8 1
     -1.97869149086824566014e-03 	 5 2 8 2
      2.41268073798346204678e-03 	 5 2 8 3
     -1.33868076722479245610e-03 	 5 2 8 4
      2.64856248408384996676e-03 	 5 2 8 5
     -1.94895834959398070105e-03 	 5 2 8 6
      1.09838506632912026421e-03 	 5 2 8 7
     -1.79286518607836287131e-02 	 5 2 8 8
     -3.49570281993530698750e-02 	 5 3 1 1
     -1.31628047145473893106e-03 	 5 3 2 1
      1.87018035067238741487e-02 	 5 3 2 2
     -5.69273498300566001967e-03 	 5 3 3 1
      2.56779481924558541234e-03 	 5 3 3 2
     -4.10100350649334061126e-02 	 5 3 3 3
      2.71659951598073555728e-04 	 5 3 4 1
      5.99824910228749139628e-04 	 5 3 4 2
      5.82715620543591827918e-03 	 5 3 4 3
     -1.05661033074374785534e-02 	 5 3 4 4
     -6.45197115583049859988e-03 	 5 3 5 1
      6.37458733798928253028e-03 	 5 3 5 2
      5.27500984669426395413e-03 	 5 3 5 3
      2.42747565182293905880e-03 	 5 3 5 4
     -5.20366099948053675850e-02 	 5 3 5 5
     -1.59687281219534054494e-03 	 5 3 6 1
      1.72555654183815447393e-03 	 5 3 6 2
      6.81928752333160834859e-03 	 5 3 6 3
      7.00202472675269874114e-03 	 5 3 6 4
      3.38267644125467108196e-03 	 5 3 6 5
      9.25325878975650009672e-03 	 5 3 6 6
     -2.13085642902544904718e-05 	 5 3 7 1
     -4.41561708000708010718e-03 	 5 3 7 2
     -2.18002746298422448931e-03 	 5 3 7 3
     -1.95903231944631042380e-03 	 5 3 7 4
     -6.02324195400520071703e-03 	 5 3 7 5
     -7.71883413622092748839e-04 	 5 3 7 6
      1.64262235901646027302e-03 	 5 3 7 7
     -8.93505035969156813369e-03 	 5 3 8 1
     -1.03445586260094259459e-03 	 5 3 8 2
      2.11916676706607170350e-03 	 5 3 8 3
     -1.26229195252881972941e-03 	 5 3 8 4
      2.15233689666964427001e-03 	 5 3 8 5
     -1.53298251453785720766e-03 	 5 3 8 6
      7.43640845995731966482e-04 	 5 3 8 7
     -1.28557358268774797605e-02 	 5 3 8 8
     -1.58235048403110832582e-02 	 5 4 1 1
     -7.65819269033697061153e-04 	 5 4 2 1
      7.73102713377038421733e-03 	 5 4 2 2
     -2.14786764558959992685e-03 	 5 4 3 1
      1.26684765738103023540e-03 	 5 4 3 2
     -1.27233377563579705405e-02 	 5 4 3 3
     -3.25466262597521151581e-04 	 5 4 4 1
      5.65918165193246992112e-04 	 5 4 4 2
      2.87878142641894915754e-03 	 5 4 4 3
     -7.21370354408506705979e-03 	 5 4 4 4
     -3.12689895740622192735e-03 	 5 4 5 1
      3.34599484230116124908e-03 	 5 4 5 2
      2.42747565182293862512e-03 	 5 4 5 3
      1.55533247947127256303e-03 	 5 4 5 4
     -2.44753467439471975031e-02 	 5 4 5 5
     -1.09977750490621245874e-03 	 5 4 6 1
      1.12463591484247469286e-03 	 5 4 6 2
      3.40324212757604598056e-03 	 5 4 6 3
      3.95502058184496203125e-03 	 5 4 6 4
      1.88822717377906917728e-03 	 5 4 6 5
      2.97069298126333061066e-03 	 5 4 6 6
      3.62852125013320917900e-04 	 5 4 7 1
     -2.43591182395184709455e-03 	 5 4 7 2
     -1.18603887982824079787e-03 	 5 4 7 3
     -1.12777880612179373654e-03 	 5 4 7 4
     -3.06575409475309638985e-03 	 5 4 7 5
     -5.35640349491919224960e-04 	 5 4 7 6
      5.73698197035572409613e-05 	 5 4 7 7
     -3.82345776832782036081e-03 	 5 4 8 1
     -4.42390002394940011314e-04 	 5 4 8 2
      9.67511403975377889432e-04 	 5 4 8 3
     -3.71754876591426906308e-04 	 5 4 8 4
      9.27543618706488785276e-04 	 5 4 8 5
     -6.53351882162286510744e-04 	 5 4 8 6
      2.23814408247022689907e-04 	 5 4 8 7
     -8.30063949642390053185e-03 	 5 4 8 8
      5.26035809693674138998e-01 	 5 5 1 1
      8.83885563550307340464e-03 	 5 5 2 1
     -9.58550599360723232234e-03 	 5 5 2 2
      4.01525569405910137677e-02 	 5 5 3 1
     -1.46712551446041197106e-02 	 5 5 3 2
      4.33293522336766101510e-01 	 5 5 3 3
     -4.81067003851470310904e-03 	 5 5 4 1
     -1.79117561585872457977e-03 	 5 5 4 2
     -4.46703520365381648305e-02 	 5 5 4 3
      2.95563792672053460286e-01 	 5 5 4 4
      7.83284078757394142123e-02 	 5 5 5 1
     -6.93846319366915875726e-02 	 5 5 5 2
     -5.20366099948053606461e-02 	 5 5 5 3
     -2.44753467439471558698e-02 	 5 5 5 4
      1.00723220856316864058e+00 	 5 5 5 5
      1.41974954362343395303e-02 	 5 5 6 1
     -9.31750999976643790035e-03 	 5 5 6 2
     -5.10084021630944975390e-02 	 5 5 6 3
     -6.01003228937002920151e-02 	 5 5 6 4
     -3.89328746205573200667e-02 	 5 5 6 5
      1.03853982583418574803e-01 	 5 5 6 6
      9.36315732644576580873e-04 	 5 5 7 1
      2.44701522233544514762e-02 	 5 5 7 2
      1.57252058248311711586e-02 	 5 5 7 3
      1.75869686448718032246e-02 	 5 5 7 4
      6.86823654781659603819e-02 	 5 5 7 5
      2.48492354408760222212e-03 	 5 5 7 6
      1.27645363071726664073e-01 	 5 5 7 7
      8.23142630826310672809e-02 	 5 5 8 1
      7.82684140647232212684e-03 	 5 5 8 2
     -1.98535036604993546383e-02 	 5 5 8 3
      7.36323657908384554549e-03 	 5 5 8 4
     -2.32564696647255125805e-02 	 5 5 8 5
      1.49564287068448212997e-02 	 5 5 8 6
     -4.80060765652327511854e-03 	 5 5 8 7
      2.98132030919002977143e-01 	 5 5 8 8
      1.25134493014768463648e-02 	 6 1 1 1
      7.28360316413444435629e-04 	 6 1 2 1
     -4.36116043107878485763e-03 	 6 1 2 2
      1.33168668092438925027e-03 	 6 1 3 1
     -9.23745135064982757223e-04 	 6 1 3 2
      7.99627153816410626841e-03 	 6 1 3 3
      5.22363442510368164266e-04 	 6 1 4 1
     -3.73391012426709445124e-04 	 6 1 4 2
     -2.26356852473872304995e-03 	 6 1 4 3
      6.92654535749151478718e-03 	 6 1 4 4
      1.91443715474583263728e-03 	 6 1 5 1
     -2.42761887282464490154e-03 	 6 1 5 2
     -1.59687281219533252184e-03 	 6 1 5 3
     -1.09977750490620638721e-03 	 6 1 5 4
      1.41974954362343360609e-02 	 6 1 5 5
      1.75515228319075757696e-03 	 6 1 6 1
     -7.34219139650230329455e-04 	 6 1 6 2
     -2.99397824732595008862e-03 	 6 1 6 3
     -3.17866451820492243105e-03 	 6 1 6 4
     -1.55953927770312197713e-03 	 6 1 6 5
      4.38034291412122854179e-04 	 6 1 6 6
     -4.38791729946027403691e-04 	 6 1 7 1
      2.05494037126541890734e-03 	 6 1 7 2
      8.22960051787013772452e-04 	 6 1 7 3
      7.11561722199587336907e-04 	 6 1 7 4
      2.07156222230310028964e-03 	 6 1 7 5
      9.94355940634466411478e-05 	 6 1 7 6
      1.77063832694977947579e-04 	 6 1 7 7
      2.31790041584034427202e-03 	 6 1 8 1
      1.03064373835516092542e-04 	 6 1 8 2
     -6.93264984723479700535e-04 	 6 1 8 3
      4.91133531198670487961e-05 	 6 1 8 4
     -5.40870696983020279522e-04 	 6 1 8 5
     -2.78860957359158335468e-04 	 6 1 8 6
     -7.66641406510047284002e-05 	 6 1 8 7
      7.11005626531811818491e-03 	 6 1 8 8
     -6.02987370426824858399e-03 	 6 2 1 1
     -6.50317450648169362824e-04 	 6 2 2 1
     -6.19136333697693341110e-04 	 6 2 2 2
     -1.62643917462494723772e-03 	 6 2 3 1
      2.07025913737848930168e-03 	 6 2 3 2
     -5.98720203389433922037e-03 	 6 2 3 3
     -9.90719490757337205907e-05 	 6 2 4 1
      1.74763656375842395263e-03 	 6 2 4 2
      2.27122200366740301103e-03 	 6 2 4 3
     -6.82722843922896512059e-03 	 6 2 4 4
     -1.85568286525664150055e-03 	 6 2 5 1
      3.71571189493533678844e-03 	 6 2 5 2
      1.72555654183815685918e-03 	 6 2 5 3
      1.12463591484247490970e-03 	 6 2 5 4
     -9.31750999976642228784e-03 	 6 2 5 5
     -7.34219139650257109249e-04 	 6 2 6 1
      5.03648227503112125292e-03 	 6 2 6 2
      3.84774742099939191797e-03 	 6 2 6 3
      4.57881938963462711140e-03 	 6 2 6 4
      2.31402270141612157947e-03 	 6 2 6 5
     -3.47289474319630031562e-03 	 6 2 6 6
      1.73305759238643209558e-04 	 6 2 7 1
     -3.79934259293175213140e-03 	 6 2 7 2
     -1.04954216939545283936e-03 	 6 2 7 3
     -1.20428208000512805206e-03 	 6 2 7 4
     -2.32924610314958618895e-03 	 6 2 7 5
     -1.79474638064405561319e-03 	 6 2 7 6
     -3.14308593955494285088e-03 	 6 2 7 7
     -3.35843412071349864401e-03 	 6 2 8 1
     -1.58968031849590586344e-03 	 6 2 8 2
      7.09964787285191677516e-04 	 6 2 8 3
     -9.56657969033573299042e-04 	 6 2 8 4
      7.20553006182185267967e-04 	 6 2 8 5
     -1.73905442436678332740e-03 	 6 2 8 6
      8.01646385253411029523e-04 	 6 2 8 7
     -4.47857357157485126697e-03 	 6 2 8 8
     -3.94044451848997237531e-02 	 6 3 1 1
     -2.18847988759752641250e-03 	 6 3 2 1
      2.59298021157659264180e-02 	 6 3 2 2
     -7.62228281940451231347e-03 	 6 3 3 1
      4.04224971627901129290e-03 	 6 3 3 2
     -5.87026805503862575408e-02 	 6 3 3 3
     -6.55934445492976003420e-04 	 6 3 4 1
      8.53962414140729949782e-04 	 6 3 4 2
      9.65102351967909305452e-03 	 6 3 4 3
     -2.11384831383025356688e-02 	 6 3 4 4
     -7.22837062272393537227e-03 	 6 3 5 1
      8.99325968542643433556e-03 	 6 3 5 2
      6.81928752333160401178e-03 	 6 3 5 3
      3.40324212757604337848e-03 	 6 3 5 4
     -5.10084021630945252945e-02 	 6 3 5 5
     -2.99397824732594748653e-03 	 6 3 6 1
      3.84774742099937543810e-03 	 6 3 6 2
      1.28993356904345286146e-02 	 6 3 6 3
      1.35963488666887531708e-02 	 6 3 6 4
      5.31570633981419404801e-03 	 6 3 6 5
     -2.14826829717643975892e-05 	 6 3 6 6
      7.69526167957462802274e-04 	 6 3 7 1
     -7.81370212826408908069e-03 	 6 3 7 2
     -3.22532373039703711484e-03 	 6 3 7 3
     -2.48742240226383290458e-03 	 6 3 7 4
     -8.16773746900627088674e-03 	 6 3 7 5
     -1.48539183156988757045e-03 	 6 3 7 6
      1.40228891332236024758e-03 	 6 3 7 7
     -1.09134227951001149676e-02 	 6 3 8 1
     -1.39985559776758822920e-03 	 6 3 8 2
      2.81487258565914482550e-03 	 6 3 8 3
     -1.86282169987672056172e-03 	 6 3 8 4
      2.66726291509419843884e-03 	 6 3 8 5
     -2.75738349893135800336e-03 	 6 3 8 6
      7.17334629983962159677e-04 	 6 3 8 7
     -1.94180799836389250679e-02 	 6 3 8 8
     -3.92757959891878935532e-02 	 6 4 1 1
     -2.51998182629119618636e-03 	 6 4 2 1
      3.13370655009390652879e-02 	 6 4 2 2
     -6.62949582550896761302e-03 	 6 4 3 1
      3.65595530314943677197e-03 	 6 4 3 2
     -3.49724428209259655120e-02 	 6 4 3 3
     -8.81085146674547383706e-04 	 6 4 4 1
      8.10884557912385341497e-04 	 6 4 4 2
      9.78044970048568343413e-03 	 6 4 4 3
     -3.54968868120845992831e-02 	 6 4 4 4
     -8.62878140788435853137e-03 	 6 4 5 1
      1.07444047618994141524e-02 	 6 4 5 2
      7.00202472675269527169e-03 	 6 4 5 3
      3.95502058184496636806e-03 	 6 4 5 4
     -6.01003228937003475263e-02 	 6 4 5 5
     -3.17866451820488817026e-03 	 6 4 6 1
      4.57881938963463838710e-03 	 6 4 6 2
      1.35963488666887358236e-02 	 6 4 6 3
      2.19562275660382527631e-02 	 6 4 6 4
      6.24827896938985171554e-03 	 6 4 6 5
     -2.52900695763917096257e-03 	 6 4 6 6
      1.42971369575245043498e-03 	 6 4 7 1
     -9.09237928511020393474e-03 	 6 4 7 2
     -3.37179868761646513858e-03 	 6 4 7 3
     -3.08021408202352724864e-03 	 6 4 7 4
     -9.71317668838911005280e-03 	 6 4 7 5
     -1.82028061970574295964e-03 	 6 4 7 6
      3.94632900012118186667e-03 	 6 4 7 7
     -1.23740852285777087893e-02 	 6 4 8 1
     -1.43287932025520361665e-03 	 6 4 8 2
      2.98977122103389692312e-03 	 6 4 8 3
     -1.33099037946453834479e-03 	 6 4 8 4
      3.00249648581714509085e-03 	 6 4 8 5
     -3.67922372386842366429e-03 	 6 4 8 6
      1.35739124553957662793e-03 	 6 4 8 7
     -2.57910178976088373670e-02 	 6 4 8 8
     -1.83513150808863115260e-02 	 6 5 1 1
     -1.01776839104776714237e-03 	 6 5 2 1
      1.35875679533566211254e-02 	 6 5 2 2
     -2.86861646764681975375e-03 	 6 5 3 1
      1.69204606342591361116e-03 	 6 5 3 2
     -1.59373122304669601057e-02 	 6 5 3 3
     -2.30060622968016016080e-04 	 6 5 4 1
      7.68536190320561612976e-04 	 6 5 4 2
      3.84390356845928579665e-03 	 6 5 4 3
     -1.11340514498450941783e-02 	 6 5 4 4
     -4.28218436360453154343e-03 	 6 5 5 1
      4.88127355870824307382e-03 	 6 5 5 2