&FCI NORB=11,NELEC=0,MS2=0
ORBSYM=1,1,1,1,
ISYM=1,
/
      3.10683378663660525465e-01 	 1 1 1 1
      6.92039125942002899053e-04 	 1 1 2 1
      1.65908700307521916884e-01 	 1 1 2 2
     -3.15994707038690341838e-04 	 1 1 3 1
     -3.49996301066440103529e-04 	 1 1 3 2
      1.49395822065217342978e-01 	 1 1 3 3
      4.02591839169794390302e-03 	 1 1 4 1
      4.44733925183247828794e-03 	 1 1 4 2
     -1.65472881139922802993e-03 	 1 1 4 3
      2.24878397295779741683e-01 	 1 1 4 4
      2.71224999890821213272e-03 	 1 1 5 1
      3.07210244870285487714e-04 	 1 1 5 2
      1.83169163331960236502e-03 	 1 1 5 3
     -1.43427016213611976470e-04 	 1 1 5 4
      1.87289438585530876313e-01 	 1 1 5 5
     -4.11697060127518346673e-03 	 1 1 6 1
     -4.51843099350656177918e-04 	 1 1 6 2
     -2.45824406829995905852e-03 	 1 1 6 3
      1.67902230668842125313e-03 	 1 1 6 4
     -1.75956842872125997310e-04 	 1 1 6 5
      1.39469688346000847412e-01 	 1 1 6 6
      9.22470899177575817326e-04 	 1 1 7 1
     -2.50723636315047923237e-03 	 1 1 7 2
     -1.35758769113588392656e-03 	 1 1 7 3
     -5.65603685883273293172e-03 	 1 1 7 4
      1.69316342808488386369e-03 	 1 1 7 5
     -5.74524877098170220005e-05 	 1 1 7 6
      2.40986721068799647494e-01 	 1 1 7 7
     -5.69404433674076167898e-03 	 1 1 8 1
      5.68954372097339906855e-03 	 1 1 8 2
     -3.00387687677792017404e-03 	 1 1 8 3
      8.63403950718408773335e-03 	 1 1 8 4
      9.58225159857944855726e-04 	 1 1 8 5
      4.72392558116856674244e-03 	 1 1 8 6
      6.04810907413846909897e-03 	 1 1 8 7
      2.38881130274432335048e-01 	 1 1 8 8
      7.83879687180298145681e-04 	 1 1 9 1
     -8.16109320545586034747e-04 	 1 1 9 2
     -1.56315985243212179738e-03 	 1 1 9 3
      2.42660374067313940744e-03 	 1 1 9 4
      1.84935624886063606229e-04 	 1 1 9 5
      3.25123837925978768221e-03 	 1 1 9 6
      1.00064125293483738473e-03 	 1 1 9 7
      5.94377632439787705748e-03 	 1 1 9 8
      1.39085772573434018895e-01 	 1 1 9 9
     -1.45329670272992359393e-04 	 1 1 10 1
      3.22490997053287865165e-03 	 1 1 10 2
     -3.03600855293996788054e-03 	 1 1 10 3
     -3.55044554003896520745e-04 	 1 1 10 4
     -3.56494886912802754365e-04 	 1 1 10 5
      1.85209625176771205436e-03 	 1 1 10 6
      1.72319603002739850893e-03 	 1 1 10 7
      3.07638282120692007487e-03 	 1 1 10 8
      1.29196309807663072336e-03 	 1 1 10 9
      2.63595344807796838627e-01 	 1 1 10 10
     -1.46463058932907964557e-03 	 1 1 11 1
      2.68651860914785513973e-03 	 1 1 11 2
     -1.75230511120217594817e-03 	 1 1 11 3
      1.02175903756396443088e-03 	 1 1 11 4
      1.53508294669155685719e-03 	 1 1 11 5
      1.81605710055146476849e-03 	 1 1 11 6
     -9.72016789161314793966e-03 	 1 1 11 7
      1.29978422535191161930e-03 	 1 1 11 8
     -2.22061383769959401566e-04 	 1 1 11 9
     -2.53849678187948683133e-03 	 1 1 11 10
      2.39704054096658347728e-01 	 1 1 11 11
      6.92039125942011030569e-04 	 2 1 1 1
      3.23026508303324039889e-03 	 2 1 2 1
      2.02719257503377950358e-02 	 2 1 2 2
     -9.13918262241254428235e-04 	 2 1 3 1
     -7.49947796957372214352e-04 	 2 1 3 2
      2.07849799167228732610e-02 	 2 1 3 3
      1.54778714018987588810e-03 	 2 1 4 1
     -2.70944306986492565795e-03 	 2 1 4 2
      1.63834421368898113490e-03 	 2 1 4 3
      1.04422875894200004043e-02 	 2 1 4 4
     -3.67608314427292045320e-04 	 2 1 5 1
     -1.10520295053959189606e-04 	 2 1 5 2
     -7.62679348942684934677e-05 	 2 1 5 3
     -1.55875353138827486962e-04 	 2 1 5 4
     -1.60253147768891560099e-02 	 2 1 5 5
      4.54126425698923874303e-05 	 2 1 6 1
      4.55146239494349179842e-04 	 2 1 6 2
      9.87986661155531306969e-04 	 2 1 6 3
     -4.27082181342897148138e-04 	 2 1 6 4
      2.56106687897796468536e-05 	 2 1 6 5
      1.58726271145307046284e-02 	 2 1 6 6
      6.30131210747264178251e-04 	 2 1 7 1
     -8.82335418450694384390e-04 	 2 1 7 2
      1.10108266765026794297e-03 	 2 1 7 3
     -2.66115799067857209531e-03 	 2 1 7 4
      1.63338283927698477843e-05 	 2 1 7 5
     -2.03724474599723329171e-03 	 2 1 7 6
      6.73355655536394225036e-03 	 2 1 7 7
      5.61212250919804417695e-04 	 2 1 8 1
     -4.82689470673877219029e-04 	 2 1 8 2
      3.92313153827255549182e-04 	 2 1 8 3
     -7.84191878516844178768e-04 	 2 1 8 4
      1.94723745451214292007e-04 	 2 1 8 5
     -1.24328076302867413482e-03 	 2 1 8 6
      1.06330477219006508741e-03 	 2 1 8 7
      9.32948626772637373827e-03 	 2 1 8 8
      2.67749169672855647742e-05 	 2 1 9 1
      6.86423254323496098012e-04 	 2 1 9 2
      4.23379571159846672477e-04 	 2 1 9 3
      1.64764966710095244005e-04 	 2 1 9 4
      3.50558095709048501997e-05 	 2 1 9 5
     -7.84665250637691519264e-04 	 2 1 9 6
     -1.36235206137017006434e-03 	 2 1 9 7
     -8.15609060380127781111e-04 	 2 1 9 8
      2.21290490027973747733e-02 	 2 1 9 9
      2.82282744752637357322e-03 	 2 1 10 1
     -1.71134925957486553824e-03 	 2 1 10 2
      7.08658017221677565510e-04 	 2 1 10 3
     -1.46882062909467155966e-03 	 2 1 10 4
      2.82514316761340016776e-04 	 2 1 10 5
     -3.24724838294631712281e-04 	 2 1 10 6
     -2.70127682940758087789e-04 	 2 1 10 7
     -1.60123728419202032355e-03 	 2 1 10 8
     -4.40982523597477577351e-04 	 2 1 10 9
     -5.87104020591057689654e-04 	 2 1 10 10
      2.00102294349211503460e-03 	 2 1 11 1
     -6.90567175952205500322e-04 	 2 1 11 2
      6.21025823484953388466e-04 	 2 1 11 3
     -9.64791321107459523380e-04 	 2 1 11 4
     -6.89680384949594929437e-05 	 2 1 11 5
     -1.49962088738382062422e-03 	 2 1 11 6
     -4.10428939783325820445e-03 	 2 1 11 7
     -2.94994929303783368600e-04 	 2 1 11 8
     -1.31767333078387240651e-03 	 2 1 11 9
     -1.42389099610313544370e-03 	 2 1 11 10
      7.22288038192078589439e-04 	 2 1 11 11
      1.65908700307521750350e-01 	 2 2 1 1
      2.02719257503377880969e-02 	 2 2 2 1
      8.01812101741497085250e-01 	 2 2 2 2
     -1.65376615012665303950e-02 	 2 2 3 1
      4.26206884229476338360e-03 	 2 2 3 2
      5.96488703795646890704e-01 	 2 2 3 3
      1.06547815927104487510e-02 	 2 2 4 1
     -6.54303490690266859042e-02 	 2 2 4 2
      1.42190240616262668361e-02 	 2 2 4 3
      3.71302287787353080262e-01 	 2 2 4 4
     -5.67840234070426160690e-03 	 2 2 5 1
     -1.97676314664321176734e-03 	 2 2 5 2
     -2.47803698322136400217e-03 	 2 2 5 3
     -2.54564987199880484944e-03 	 2 2 5 4
     -5.03701597715542348510e-02 	 2 2 5 5
     -5.79679744381018675209e-03 	 2 2 6 1
      1.17321648886234419784e-02 	 2 2 6 2
      1.21756874811997754804e-02 	 2 2 6 3
     -5.86832168067692901137e-03 	 2 2 6 4
      1.29731399994687966390e-03 	 2 2 6 5
      5.09616635039567000831e-01 	 2 2 6 6
      1.05770047341917153294e-02 	 2 2 7 1
     -1.01839005938883751801e-02 	 2 2 7 2
      1.64388021369834477770e-02 	 2 2 7 3
     -3.16279559584352748525e-02 	 2 2 7 4
     -1.52925380522570550715e-03 	 2 2 7 5
     -2.65242795268442951850e-02 	 2 2 7 6
      1.36924174796956094058e-01 	 2 2 7 7
      2.90226596821454478972e-03 	 2 2 8 1
     -1.58770002954859434929e-02 	 2 2 8 2
      7.02484837173550022427e-03 	 2 2 8 3
     -1.06107799906608527007e-02 	 2 2 8 4
      3.16781683462505434662e-03 	 2 2 8 5
     -1.81656952645916705547e-02 	 2 2 8 6
      1.10548505967284146911e-02 	 2 2 8 7
      2.79106282911014635939e-01 	 2 2 8 8
     -1.67801409862875991474e-03 	 2 2 9 1
      1.52626925806414147357e-02 	 2 2 9 2
      3.49298385579995158967e-03 	 2 2 9 3
      4.06706114269750167167e-03 	 2 2 9 4
      4.43458192607265296384e-04 	 2 2 9 5
     -1.94877323357746656818e-02 	 2 2 9 6
     -1.80336421631852455993e-02 	 2 2 9 7
     -1.36171273021687411209e-02 	 2 2 9 8
      6.10261112059163668420e-01 	 2 2 9 9
      2.55081497266567910898e-02 	 2 2 10 1
     -4.11374986243004392428e-02 	 2 2 10 2
      9.63312983965005850684e-03 	 2 2 10 3
     -1.66654342490659829190e-02 	 2 2 10 4
      1.34616938128294611268e-03 	 2 2 10 5
     -4.46827710484954190862e-03 	 2 2 10 6
     -4.30818567453412470253e-03 	 2 2 10 7
     -1.02690028862186463754e-02 	 2 2 10 8
     -6.67577680722856135753e-03 	 2 2 10 9
      7.57139258907001955201e-02 	 2 2 10 10
      1.56522850221577809748e-02 	 2 2 11 1
     -1.84404204493724757641e-02 	 2 2 11 2
      1.26547428540945000597e-02 	 2 2 11 3
     -2.02305681476425483489e-02 	 2 2 11 4
     -1.42141025911284198113e-03 	 2 2 11 5
     -2.60096487986992662422e-02 	 2 2 11 6
     -3.85218087745154216806e-02 	 2 2 11 7
     -3.10284717997251231064e-03 	 2 2 11 8
     -2.22961138229378144637e-02 	 2 2 11 9
     -1.09926802701334966339e-02 	 2 2 11 10
      1.80111098112271383886e-01 	 2 2 11 11
     -3.15994707038700587548e-04 	 3 1 1 1
     -9.13918262241256596640e-04 	 3 1 2 1
     -1.65376615012665095783e-02 	 3 1 2 2
      3.78205481093006916013e-03 	 3 1 3 1
     -2.64027024952564711487e-04 	 3 1 3 2
     -1.27207133942792410125e-02 	 3 1 3 3
     -2.73806813472985397830e-04 	 3 1 4 1
      2.52774248496009414089e-03 	 3 1 4 2
     -4.67885866180001662971e-04 	 3 1 4 3
     -1.78170273436368230280e-02 	 3 1 4 4
      5.67374325054842681276e-04 	 3 1 5 1
      1.12285034252319418650e-04 	 3 1 5 2
     -2.27543136344463144648e-04 	 3 1 5 3
      2.09317610356860635962e-04 	 3 1 5 4
      7.46479005149284884080e-03 	 3 1 5 5
     -6.72075953551705428980e-04 	 3 1 6 1
      4.92115950465078170334e-04 	 3 1 6 2
     -3.96902611993035108785e-04 	 3 1 6 3
     -1.38247252380555588286e-04 	 3 1 6 4
     -1.40482964724469188735e-06 	 3 1 6 5
      7.42945124052424386157e-03 	 3 1 6 6
     -5.82071103002456151018e-04 	 3 1 7 1
      3.85517826518376677605e-04 	 3 1 7 2
     -2.26711495945735561118e-04 	 3 1 7 3
      1.91441449099962130234e-03 	 3 1 7 4
      1.12939217089949855023e-04 	 3 1 7 5
      4.83513667796893389234e-04 	 3 1 7 6
     -4.27415083886859177575e-03 	 3 1 7 7
     -6.38517108639945468046e-04 	 3 1 8 1
      4.85301888496463950523e-04 	 3 1 8 2
     -2.61367601462068064114e-04 	 3 1 8 3
      8.29519296804052822317e-04 	 3 1 8 4
     -1.52638131617403077149e-05 	 3 1 8 5
      6.49501810074308008267e-04 	 3 1 8 6
     -9.38483027640293855295e-04 	 3 1 8 7
     -1.17352356877697232285e-02 	 3 1 8 8
     -1.85544884412343162854e-04 	 3 1 9 1
     -3.31546341852613707987e-04 	 3 1 9 2
     -1.98122220219284415855e-04 	 3 1 9 3
     -8.65078826149576999172e-05 	 3 1 9 4
      7.25175942933217823085e-06 	 3 1 9 5
      3.98400622374994782884e-04 	 3 1 9 6
      9.24693569119774939034e-04 	 3 1 9 7
      7.38237408158119701694e-04 	 3 1 9 8
     -1.86308861002311698662e-02 	 3 1 9 9
     -1.85364180993434013792e-03 	 3 1 10 1
      1.18286646313158806676e-03 	 3 1 10 2
      1.26779871207897422945e-04 	 3 1 10 3
      1.51200879887166197979e-03 	 3 1 10 4
     -5.66691140760340963684e-06 	 3 1 10 5
      1.20051013675992555158e-05 	 3 1 10 6
      2.54784553017206821888e-04 	 3 1 10 7
      1.12595202043626373481e-03 	 3 1 10 8
      2.51357522279410487698e-04 	 3 1 10 9
      4.04395022456259956717e-03 	 3 1 10 10
     -1.45959455827537778853e-03 	 3 1 11 1
      1.25905601855802034292e-04 	 3 1 11 2
     -2.46175016361725946049e-05 	 3 1 11 3
      4.72944273642125659167e-04 	 3 1 11 4
      3.58272048947663008470e-04 	 3 1 11 5
      4.89293973119724685990e-04 	 3 1 11 6
      2.26478368767822884483e-03 	 3 1 11 7
      6.89045188608568216944e-04 	 3 1 11 8
      1.08495086155802077967e-03 	 3 1 11 9
      5.71141062928809135207e-04 	 3 1 11 10
     -2.89143110173124785398e-03 	 3 1 11 11
     -3.49996301066440320369e-04 	 3 2 1 1
     -7.49947796957374816437e-04 	 3 2 2 1
      4.26206884229475557735e-03 	 3 2 2 2
     -2.64027024952563464655e-04 	 3 2 3 1
      2.88406605555955979081e-03 	 3 2 3 2
      5.35352164341113337387e-03 	 3 2 3 3
     -1.33606082677487043387e-04 	 3 2 4 1
     -8.39033872703224235801e-04 	 3 2 4 2
     -1.50880493843707445129e-03 	 3 2 4 3
      2.77829267794864592095e-03 	 3 2 4 4
     -8.44235856732753950620e-05 	 3 2 5 1
      4.60054708672093701466e-05 	 3 2 5 2
     -2.89272438655594389819e-05 	 3 2 5 3
      2.64452233351783183568e-05 	 3 2 5 4
     -4.51076835089193189932e-03 	 3 2 5 5
      5.57314291422803719184e-05 	 3 2 6 1
      1.46053007347749191740e-04 	 3 2 6 2
      6.31044549381865667748e-05 	 3 2 6 3
     -2.32090017024091726464e-04 	 3 2 6 4
     -4.02640800537881624532e-06 	 3 2 6 5
      3.22125498511499023385e-03 	 3 2 6 6
      2.61192325379641784519e-04 	 3 2 7 1
     -9.60481773534417734503e-05 	 3 2 7 2
      2.63739026529651715818e-04 	 3 2 7 3
     -6.76063681211530728352e-04 	 3 2 7 4
     -6.84257885227215062462e-05 	 3 2 7 5
     -4.53090650022390040511e-04 	 3 2 7 6
     -9.23084009466348725734e-05 	 3 2 7 7
      7.26013849984472444061e-05 	 3 2 8 1
     -3.67755871872729657879e-04 	 3 2 8 2
      3.42427126343009154141e-04 	 3 2 8 3
     -3.84072140151727847539e-04 	 3 2 8 4
      6.09617925617230867175e-05 	 3 2 8 5
     -2.93628540452851242559e-04 	 3 2 8 6
      2.43404315297750679361e-04 	 3 2 8 7
      2.26080071864496372561e-03 	 3 2 8 8
      1.65069534330554955337e-04 	 3 2 9 1
      1.66087688503590739453e-04 	 3 2 9 2
     -1.56871267445030940972e-05 	 3 2 9 3
     -5.99388930182105346758e-05 	 3 2 9 4
     -2.97822931291385892331e-06 	 3 2 9 5
     -1.76248482898516201697e-04 	 3 2 9 6
     -3.09922866419130957783e-04 	 3 2 9 7
     -2.10518770171393815836e-04 	 3 2 9 8
      6.03910714064476335239e-03 	 3 2 9 9
      5.96745637734440864675e-04 	 3 2 10 1
     -7.12030518517838364491e-04 	 3 2 10 2
      1.63635992791687185722e-04 	 3 2 10 3
     -5.43224878078910717802e-04 	 3 2 10 4
      4.39945303882396002528e-05 	 3 2 10 5
     -9.53880500855243125113e-05 	 3 2 10 6
     -1.90557513433716493693e-04 	 3 2 10 7
     -3.42567633772889747722e-04 	 3 2 10 8
     -1.17723705627084429840e-04 	 3 2 10 9
     -1.34574795260771363364e-03 	 3 2 10 10
      3.90822262374298807358e-04 	 3 2 11 1
     -3.65395377359051362794e-04 	 3 2 11 2
      4.29413365028348818948e-04 	 3 2 11 3
     -5.60169383685027552806e-04 	 3 2 11 4
     -3.61334406972556600158e-05 	 3 2 11 5
     -3.77439861208943489880e-04 	 3 2 11 6
     -9.60749488844745824084e-04 	 3 2 11 7
     -8.27494261888298769225e-05 	 3 2 11 8
     -3.54897369749891254849e-04 	 3 2 11 9
     -3.41313378002311028272e-04 	 3 2 11 10
     -1.43564476766718440368e-04 	 3 2 11 11
      1.49395822065217398489e-01 	 3 3 1 1
      2.07849799167228697916e-02 	 3 3 2 1
      5.96488703795647223771e-01 	 3 3 2 2
     -1.27207133942792514208e-02 	 3 3 3 1
      5.35352164341113857804e-03 	 3 3 3 2
      7.82683086405588479550e-01 	 3 3 3 3
      1.33097611934951242513e-02 	 3 3 4 1
     -5.76511793849580969629e-02 	 3 3 4 2
      2.11287946293177500423e-02 	 3 3 4 3
      3.62374343063512627250e-01 	 3 3 4 4
     -6.86089596317543577719e-03 	 3 3 5 1
     -9.06360790972308852723e-04 	 3 3 5 2
     -3.28515168955671559015e-03 	 3 3 5 3
     -2.82207396516493628363e-03 	 3 3 5 4
     -1.17353492532845493646e-01 	 3 3 5 5
     -7.02803376420359747490e-03 	 3 3 6 1
      1.05899583821781259618e-02 	 3 3 6 2
      1.69252893123962820654e-02 	 3 3 6 3
     -9.98545121774493775468e-03 	 3 3 6 4
      1.47419889074693966427e-03 	 3 3 6 5
      5.89535227064696742971e-01 	 3 3 6 6
      1.38618555980604563765e-02 	 3 3 7 1
     -1.14165554324949462123e-02 	 3 3 7 2
      2.33598932372466247531e-02 	 3 3 7 3
     -3.87367284328356958900e-02 	 3 3 7 4
     -1.84704276095720059184e-03 	 3 3 7 5
     -3.39383257764157217351e-02 	 3 3 7 6
      1.28623983848045686518e-01 	 3 3 7 7
      2.41979423033120708345e-03 	 3 3 8 1
     -1.39245293347835790571e-02 	 3 3 8 2
      1.13665369652160667957e-02 	 3 3 8 3
     -1.21660419397784831663e-02 	 3 3 8 4
      3.79205839302710658034e-03 	 3 3 8 5
     -2.31078992466894478364e-02 	 3 3 8 6
      1.44660860725515753866e-02 	 3 3 8 7
      2.99954239372915154593e-01 	 3 3 8 8
     -3.21794639400014258201e-03 	 3 3 9 1
      1.84226985048277711043e-02 	 3 3 9 2
      4.82842852485426080739e-03 	 3 3 9 3
     -8.02371174689901940635e-05 	 3 3 9 4
      8.47557475972119875318e-04 	 3 3 9 5
     -2.03070762700294678293e-02 	 3 3 9 6
     -2.72294504150199165315e-02 	 3 3 9 7
     -1.72257872458925521963e-02 	 3 3 9 8
      8.34469724871066631522e-01 	 3 3 9 9
      3.10050416894599584205e-02 	 3 3 10 1
     -3.28692094230807752009e-02 	 3 3 10 2
      1.59010656538993849773e-02 	 3 3 10 3
     -1.92193194347838394731e-02 	 3 3 10 4
      1.94050478356379502501e-03 	 3 3 10 5
     -5.19742522447913350703e-03 	 3 3 10 6
     -6.27497591680038421802e-03 	 3 3 10 7
     -1.52654144883474108402e-02 	 3 3 10 8
     -8.74606881666426319577e-03 	 3 3 10 9
      4.28054002223896695734e-02 	 3 3 10 10
      2.02161778321268900682e-02 	 3 3 11 1
     -1.61864767389366948080e-02 	 3 3 11 2
      1.93800431003939357955e-02 	 3 3 11 3
     -2.33606254996680494374e-02 	 3 3 11 4
     -1.26545540355234320019e-03 	 3 3 11 5
     -3.05344979607239733199e-02 	 3 3 11 6
     -4.83313712449251406400e-02 	 3 3 11 7
     -3.48981020301626903429e-03 	 3 3 11 8
     -3.09760652099293695705e-02 	 3 3 11 9
     -1.43097709008534919317e-02 	 3 3 11 10
      1.57047689263447420860e-01 	 3 3 11 11
      4.02591839169793609676e-03 	 4 1 1 1
      1.54778714018987632178e-03 	 4 1 2 1
      1.06547815927104608941e-02 	 4 1 2 2
     -2.73806813472982524694e-04 	 4 1 3 1
     -1.33606082677487151807e-04 	 4 1 3 2
      1.33097611934951259860e-02 	 4 1 3 3
      6.37772058578100868587e-03 	 4 1 4 1
     -1.18616417326958939991e-03 	 4 1 4 2
      1.34966923940433723879e-03 	 4 1 4 3
      7.89337111271925205569e-03 	 4 1 4 4
      5.82448383117868434718e-05 	 4 1 5 1
      1.02562429950334912124e-05 	 4 1 5 2
      3.72410611499015127513e-05 	 4 1 5 3
     -3.69396630545007617283e-04 	 4 1 5 4
     -1.18009004422141294821e-02 	 4 1 5 5
     -3.96851623148973976091e-04 	 4 1 6 1
      1.92470053774032541288e-04 	 4 1 6 2
      4.61962205185229056806e-04 	 4 1 6 3
     -1.50510135554556207568e-04 	 4 1 6 4
      1.43981904376197786591e-05 	 4 1 6 5
      9.40527269645982828827e-03 	 4 1 6 6
      3.97977322194612178046e-04 	 4 1 7 1
     -6.47546646012055193697e-04 	 4 1 7 2
      7.59459831930631135664e-04 	 4 1 7 3
     -1.50580355142596218621e-03 	 4 1 7 4
      2.29532584575527264306e-04 	 4 1 7 5
     -1.18917556127130438770e-03 	 4 1 7 6
      1.20661789674580532256e-03 	 4 1 7 7
      1.54530425534058944107e-04 	 4 1 8 1
     -2.82238401119604522330e-04 	 4 1 8 2
     -1.39428020708931240702e-04 	 4 1 8 3
      6.10574751462660773177e-04 	 4 1 8 4
      6.08826761434550585341e-05 	 4 1 8 5
     -7.05161703114944894699e-04 	 4 1 8 6
      6.24847677713805311518e-04 	 4 1 8 7
      7.03991560935077545502e-03 	 4 1 8 8
      1.30884019495786010218e-04 	 4 1 9 1
      4.10221526904617052670e-04 	 4 1 9 2
      2.59942154622282899177e-04 	 4 1 9 3
      2.96997934178104842830e-04 	 4 1 9 4
      3.75418724273420375192e-05 	 4 1 9 5
     -4.08484535275640409102e-04 	 4 1 9 6
     -8.43058312134407992350e-04 	 4 1 9 7
     -3.21122706767243708183e-04 	 4 1 9 8
      1.46080362828850500445e-02 	 4 1 9 9
      9.39375340502922079496e-04 	 4 1 10 1
     -1.15707043568179365409e-03 	 4 1 10 2
      3.53722906142533077486e-04 	 4 1 10 3
     -6.60311007477025306567e-07 	 4 1 10 4
      1.91442531916169043828e-04 	 4 1 10 5
     -3.03918911918041919750e-04 	 4 1 10 6
     -3.94023934502937345573e-04 	 4 1 10 7
     -9.68767955520552699090e-04 	 4 1 10 8
     -3.77240838219754280949e-04 	 4 1 10 9
      1.83859799254167339058e-03 	 4 1 10 10
      8.11246675389625036649e-04 	 4 1 11 1
     -5.19648049965605270985e-04 	 4 1 11 2
      2.70158017502072651111e-05 	 4 1 11 3
     -9.92599493874483018371e-05 	 4 1 11 4
      5.68965138198487889150e-05 	 4 1 11 5
     -9.15741951472185409036e-04 	 4 1 11 6
     -2.17837635230647488904e-03 	 4 1 11 7
     -2.39036056088510632861e-04 	 4 1 11 8
     -8.82736141619937632677e-04 	 4 1 11 9
     -1.31771845626335896637e-03 	 4 1 11 10
      2.74315721972718336210e-04 	 4 1 11 11
      4.44733925183246267543e-03 	 4 2 1 1
     -2.70944306986492826003e-03 	 4 2 2 1
     -6.54303490690266165153e-02 	 4 2 2 2
      2.52774248496009847770e-03 	 4 2 3 1
     -8.39033872703223802120e-04 	 4 2 3 2
     -5.76511793849581039018e-02 	 4 2 3 3
     -1.18616417326959590513e-03 	 4 2 4 1
      1.18096766567128263342e-02 	 4 2 4 2
     -1.85601286637200298471e-03 	 4 2 4 3
     -3.43050463185294515767e-02 	 4 2 4 4
      9.55342691726893513196e-04 	 4 2 5 1
      2.18424639951775621067e-04 	 4 2 5 2
      3.82845500343327680565e-04 	 4 2 5 3
      2.65049190283158373534e-04 	 4 2 5 4
      3.51617849915188962484e-02 	 4 2 5 5
      3.97682059468918401579e-04 	 4 2 6 1
     -6.77878244643850022370e-04 	 4 2 6 2
     -1.68059706505769776430e-03 	 4 2 6 3
      7.44798892899892553410e-04 	 4 2 6 4
     -1.63042912603416408762e-04 	 4 2 6 5
     -4.22146785306947575078e-02 	 4 2 6 6
     -1.75995583914493637645e-03 	 4 2 7 1
      1.37293967825322278664e-03 	 4 2 7 2
     -2.40285838667007997302e-03 	 4 2 7 3
      5.27351574539606030023e-03 	 4 2 7 4
      2.37902556596337392929e-04 	 4 2 7 5
      3.96489753837555615468e-03 	 4 2 7 6
      3.39539159691536673522e-03 	 4 2 7 7
     -5.62414900637545132726e-04 	 4 2 8 1
      1.70311063656762508474e-03 	 4 2 8 2
     -1.30068723694233144735e-03 	 4 2 8 3
      2.90757500410911921135e-03 	 4 2 8 4
     -3.45942506363890178722e-04 	 4 2 8 5
      2.88318673533658918415e-03 	 4 2 8 6
     -1.26202084013557632412e-03 	 4 2 8 7
     -1.71928758570672364503e-02 	 4 2 8 8
      3.63999543366263274974e-05 	 4 2 9 1
     -1.15144887910311193198e-03 	 4 2 9 2
     -4.62065691081498994795e-04 	 4 2 9 3
     -6.79417673269935547611e-04 	 4 2 9 4
     -2.59697559450364144867e-05 	 4 2 9 5
      2.44289224937817685615e-03 	 4 2 9 6
      2.66530206283854863639e-03 	 4 2 9 7
      2.35901381233652798763e-03 	 4 2 9 8
     -5.82860318299866092540e-02 	 4 2 9 9
     -4.05129226690475498229e-03 	 4 2 10 1
      4.74551202445036741928e-03 	 4 2 10 2
     -1.59851664298238729800e-03 	 4 2 10 3
      3.41078627411601619651e-03 	 4 2 10 4
     -2.66257273313739203490e-04 	 4 2 10 5
      7.69753751153654116289e-04 	 4 2 10 6
      1.22897939482508370378e-03 	 4 2 10 7
      2.33343602792889957473e-03 	 4 2 10 8
      1.08130119415749043933e-03 	 4 2 10 9
      1.62579459030843115341e-02 	 4 2 10 10
     -2.62753506424456438270e-03 	 4 2 11 1
      1.69172426683089779063e-03 	 4 2 11 2
     -1.94490066588627868310e-03 	 4 2 11 3
      3.92124556637725007330e-03 	 4 2 11 4
      2.76446044892478043006e-04 	 4 2 11 5
      3.74130633528963656501e-03 	 4 2 11 6
      6.27830591069677371868e-03 	 4 2 11 7
      7.17640826961107630884e-04 	 4 2 11 8
      3.03663281278217667830e-03 	 4 2 11 9
      1.87304951341485999977e-03 	 4 2 11 10
      2.51911453121297403135e-03 	 4 2 11 11
     -1.65472881139922802993e-03 	 4 3 1 1
      1.63834421368898265278e-03 	 4 3 2 1
      1.42190240616262720402e-02 	 4 3 2 2
     -4.67885866180001771392e-04 	 4 3 3 1
     -1.50880493843707293340e-03 	 4 3 3 2
      2.11287946293177465729e-02 	 4 3 3 3
      1.34966923940432683045e-03 	 4 3 4 1
     -1.85601286637199301005e-03 	 4 3 4 2
      5.70930159030424901750e-03 	 4 3 4 3
      7.85244068758316794698e-03 	 4 3 4 4
     -3.11939189087830038780e-04 	 4 3 5 1
     -4.67920445903345869087e-05 	 4 3 5 2
     -9.94130833858043836283e-05 	 4 3 5 3
     -3.12548674177568267234e-04 	 4 3 5 4
     -1.58297833792511721818e-02 	 4 3 5 5
     -1.60359312459056892707e-04 	 4 3 6 1
      1.56195559258870311347e-04 	 4 3 6 2
      8.28600805422287974705e-04 	 4 3 6 3
     -5.35967714759052115889e-04 	 4 3 6 4
      3.40683489291695949775e-05 	 4 3 6 5
      1.34328219090912685807e-02 	 4 3 6 6
      7.93708338389038101438e-04 	 4 3 7 1
     -7.85043995481584560084e-04 	 4 3 7 2
      9.47417781310949409096e-04 	 4 3 7 3
     -2.31824758698555852612e-03 	 4 3 7 4
     -7.44309271120517521253e-05 	 4 3 7 5
     -1.55584940240603816948e-03 	 4 3 7 6
     -1.51962332566379226817e-03 	 4 3 7 7
      1.11521038950060711161e-04 	 4 3 8 1
     -5.70781067922179730610e-04 	 4 3 8 2
      5.14113311806534980207e-05 	 4 3 8 3
     -3.40515140767906285008e-04 	 4 3 8 4
      1.53531588240612650769e-04 	 4 3 8 5
     -1.13064003447227142199e-03 	 4 3 8 6
      6.04510530701028096605e-04 	 4 3 8 7
      5.44420596221639827711e-03 	 4 3 8 8
      3.47401541276883243895e-07 	 4 3 9 1
      5.61833071719194682841e-04 	 4 3 9 2
      4.55987432947250570341e-04 	 4 3 9 3
     -6.79947335893371575428e-05 	 4 3 9 4
      1.28448165168878866346e-05 	 4 3 9 5
     -7.00723352189815498238e-04 	 4 3 9 6
     -1.15900562128242509002e-03 	 4 3 9 7
     -8.20905846617105551359e-04 	 4 3 9 8
      2.41481551548544497166e-02 	 4 3 9 9
      1.25171881272448859077e-03 	 4 3 10 1
     -1.15527374887252004890e-03 	 4 3 10 2
      4.54843493616088130789e-04 	 4 3 10 3
     -5.24693456568067545173e-04 	 4 3 10 4
      1.53181243999537218536e-04 	 4 3 10 5
     -3.85069390037958347514e-04 	 4 3 10 6
     -6.15636080871228034625e-04 	 4 3 10 7
     -1.20712183915358561327e-03 	 4 3 10 8
     -5.08432034155622842447e-04 	 4 3 10 9
     -5.60841397327925018923e-03 	 4 3 10 10
      1.01921863085215774238e-03 	 4 3 11 1
     -8.29480675214301307364e-04 	 4 3 11 2
      2.93757078959185503192e-04 	 4 3 11 3
     -1.01711019312342469331e-03 	 4 3 11 4
     -2.02665927559323035640e-04 	 4 3 11 5
     -1.31651362924724507977e-03 	 4 3 11 6
     -2.65348256608543327933e-03 	 4 3 11 7
     -2.42829729162919675384e-04 	 4 3 11 8
     -1.23388206274427521779e-03 	 4 3 11 9
     -1.05706957193372596410e-03 	 4 3 11 10
     -2.40087300789573916682e-03 	 4 3 11 11
      2.24878397295779630660e-01 	 4 4 1 1
      1.04422875894200073432e-02 	 4 4 2 1
      3.71302287787352525150e-01 	 4 4 2 2
     -1.78170273436367813946e-02 	 4 4 3 1
      2.77829267794864852303e-03 	 4 4 3 2
      3.62374343063512460716e-01 	 4 4 3 3
      7.89337111271923123901e-03 	 4 4 4 1
     -3.43050463185294030044e-02 	 4 4 4 2
      7.85244068758315406920e-03 	 4 4 4 3
      5.14177622555267443971e-01 	 4 4 4 4
     -3.57107233958019491468e-03 	 4 4 5 1
     -7.51186948669611657958e-04 	 4 4 5 2
     -1.88162376311348583310e-04 	 4 4 5 3
     -3.96000367425407544947e-03 	 4 4 5 4
      7.55404123859031856325e-02 	 4 4 5 5
     -1.94116653150886407653e-03 	 4 4 6 1
      2.52138480592126786733e-03 	 4 4 6 2
      3.73216575054153469962e-03 	 4 4 6 3
     -2.02328002578913441339e-03 	 4 4 6 4
      7.12009711895217898073e-04 	 4 4 6 5
      2.88978242689200137683e-01 	 4 4 6 6
      7.33312854412275592214e-03 	 4 4 7 1
     -4.69474587936371309110e-03 	 4 4 7 2
      4.24486271717766042860e-03 	 4 4 7 3
     -2.52433435370796530051e-02 	 4 4 7 4
     -1.05401747811285396994e-03 	 4 4 7 5
     -1.15912722732952125360e-02 	 4 4 7 6
      1.87178936111367599793e-01 	 4 4 7 7
      2.44709177454742682692e-03 	 4 4 8 1
     -9.83760846379206493895e-04 	 4 4 8 2
      3.59185856119307493975e-03 	 4 4 8 3
     -4.30437435745096349388e-03 	 4 4 8 4
      2.18465747137302612052e-03 	 4 4 8 5
     -8.37926313968382664721e-03 	 4 4 8 6
      9.67414211394907255781e-03 	 4 4 8 7
      3.12543933661058870310e-01 	 4 4 8 8
      4.70069015352183217256e-04 	 4 4 9 1
      3.74267300039832044589e-03 	 4 4 9 2
      3.03797027398318875580e-04 	 4 4 9 3
      5.85391475514791381068e-03 	 4 4 9 4
      4.45793001485185827210e-05 	 4 4 9 5
     -6.13297365879510690545e-03 	 4 4 9 6
     -7.00441041368251443577e-03 	 4 4 9 7
     -5.45170478124336419651e-03 	 4 4 9 8
      3.37199662410357703379e-01 	 4 4 9 9
      1.83500723314888071480e-02 	 4 4 10 1
     -1.21818274106011634195e-02 	 4 4 10 2
      3.84671246496646633203e-03 	 4 4 10 3
     -2.42392697035916267201e-02 	 4 4 10 4
      9.49600865488537488820e-05 	 4 4 10 5
     -7.12157405208165570146e-04 	 4 4 10 6
      8.80361662790348289964e-04 	 4 4 10 7
     -6.10812065394225438275e-03 	 4 4 10 8
     -2.12817016316732988274e-03 	 4 4 10 9
      1.55062746219986863361e-01 	 4 4 10 10
      1.04748197682054643154e-02 	 4 4 11 1
     -1.75799817362376443672e-03 	 4 4 11 2
      4.51955125555381087565e-03 	 4 4 11 3
     -1.01313598104658172255e-02 	 4 4 11 4
     -2.67267223826795448025e-03 	 4 4 11 5
     -1.40761624622323267692e-02 	 4 4 11 6
     -2.73289349080244603485e-02 	 4 4 11 7
     -7.44164839960503692040e-03 	 4 4 11 8
     -1.28338967358477204495e-02 	 4 4 11 9
     -9.10486888508355365901e-03 	 4 4 11 10
      2.67625794848974474238e-01 	 4 4 11 11
      2.71224999890821300008e-03 	 5 1 1 1
     -3.67608314427292153740e-04 	 5 1 2 1
     -5.67840234070426941315e-03 	 5 1 2 2
      5.67374325054842572856e-04 	 5 1 3 1
     -8.44235856732745277003e-05 	 5 1 3 2
     -6.86089596317543230775e-03 	 5 1 3 3
      5.82448383117871416274e-05 	 5 1 4 1
      9.55342691726889826909e-04 	 5 1 4 2
     -3.11939189087829334048e-04 	 5 1 4 3
     -3.57107233958020272094e-03 	 5 1 4 4
      1.52191630211316554153e-03 	 5 1 5 1
     -3.99900416305679616037e-04 	 5 1 5 2
      1.76537477244446375409e-04 	 5 1 5 3
     -3.25377029000126260019e-04 	 5 1 5 4
      5.82071010542535398347e-03 	 5 1 5 5
     -2.78907343748254908829e-04 	 5 1 6 1
     -1.56017481628840021029e-04 	 5 1 6 2
     -2.39195434513060883452e-04 	 5 1 6 3
      2.38197665957991656753e-04 	 5 1 6 4
      2.55966551385230722490e-05 	 5 1 6 5
     -5.56650822373455731601e-03 	 5 1 6 6
     -3.83173337193875088429e-04 	 5 1 7 1
      2.25487754758855964057e-04 	 5 1 7 2
     -3.35851844389431822800e-04 	 5 1 7 3
      8.58913590841898729779e-04 	 5 1 7 4
     -7.52258454791818902997e-04 	 5 1 7 5
      6.42368236880903279579e-04 	 5 1 7 6
     -5.65493389541624137846e-04 	 5 1 7 7
     -9.14393149862487977439e-05 	 5 1 8 1
      4.18350555562747882833e-04 	 5 1 8 2