[Molden Format]
[Atoms] (AU)
C    1    6          -3.5627646139         2.2867634838         0.0002476130
C    2    6          -0.9340667562         2.3015392524         0.0003061945
C    3    6           0.3353038562         0.0000002302         0.0003269815
H    4    1          -4.5855732101         4.0624635348        -0.0003268637
H    5    1           0.1361871938         4.0428122729         0.0001758034
N    6    7           3.1331189740         0.0000002302         0.0001795829
O    7    8           4.2036582727        -2.0493227152        -0.0002361569
O    8    8           4.2036582727         2.0493212859        -0.0004232398
C    9    6          -3.5627665036        -2.2867630234         0.0001682445
H   10    1          -4.5855769896        -4.0624611847        -0.0004780418
C   11    6          -0.9340686460        -2.3015387920         0.0002381644
H   12    1           0.1361853041        -4.0428118125         0.0000718685
C   13    6          -4.8749507511         0.0000002302        -0.0003967836
H   14    1          -6.9252450158         0.0000002302        -0.0020748604
[GTO]
  1 0
 s    6  1.00
     4563.2400000000         0.0019666500
      682.0240000000         0.0152306000
      154.9730000000         0.0761269000
       44.4553000000         0.2608010000
       13.0290000000         0.6164620000
        1.8277300000         0.2210060000
 s    3  1.00
       20.9642000000         0.1146600000
        4.8033100000         0.9199990000
        1.4593300000        -0.0030306800
 p    3  1.00
       20.9642000000         0.0402487000
        4.8033100000         0.2375940000
        1.4593300000         0.8158540000
 s    1  1.00
        0.4834560000         1.0000000000
 p    1  1.00
        0.4834560000         1.0000000000
 s    1  1.00
        0.1455850000         1.0000000000
 p    1  1.00
        0.1455850000         1.0000000000
 d    1  1.00
        0.6260000000         1.0000000000

  2 0
 s    6  1.00
     4563.2400000000         0.0019666500
      682.0240000000         0.0152306000
      154.9730000000         0.0761269000
       44.4553000000         0.2608010000
       13.0290000000         0.6164620000
        1.8277300000         0.2210060000
 s    3  1.00
       20.9642000000         0.1146600000
        4.8033100000         0.9199990000
        1.4593300000        -0.0030306800
 p    3  1.00
       20.9642000000         0.0402487000
        4.8033100000         0.2375940000
        1.4593300000         0.8158540000
 s    1  1.00
        0.4834560000         1.0000000000
 p    1  1.00
        0.4834560000         1.0000000000
 s    1  1.00
        0.1455850000         1.0000000000
 p    1  1.00
        0.1455850000         1.0000000000
 d    1  1.00
        0.6260000000         1.0000000000

  3 0
 s    6  1.00
     4563.2400000000         0.0019666500
      682.0240000000         0.0152306000
      154.9730000000         0.0761269000
       44.4553000000         0.2608010000
       13.0290000000         0.6164620000
        1.8277300000         0.2210060000
 s    3  1.00
       20.9642000000         0.1146600000
        4.8033100000         0.9199990000
        1.4593300000        -0.0030306800
 p    3  1.00
       20.9642000000         0.0402487000
        4.8033100000         0.2375940000
        1.4593300000         0.8158540000
 s    1  1.00
        0.4834560000         1.0000000000
 p    1  1.00
        0.4834560000         1.0000000000
 s    1  1.00
        0.1455850000         1.0000000000
 p    1  1.00
        0.1455850000         1.0000000000
 d    1  1.00
        0.6260000000         1.0000000000

  4 0
 s    3  1.00
       33.8650000000         0.0254938000
        5.0947900000         0.1903730000
        1.1587900000         0.8521610000
 s    1  1.00
        0.3258400000         1.0000000000
 s    1  1.00
        0.1027410000         1.0000000000

  5 0
 s    3  1.00
       33.8650000000         0.0254938000
        5.0947900000         0.1903730000
        1.1587900000         0.8521610000
 s    1  1.00
        0.3258400000         1.0000000000
 s    1  1.00
        0.1027410000         1.0000000000

  6 0
 s    6  1.00
     6293.4800000000         0.0019697900
      949.0440000000         0.0149613000
      218.7760000000         0.0735006000
       63.6916000000         0.2489370000
       18.8282000000         0.6024600000
        2.7202300000         0.2562020000
 s    3  1.00
       30.6331000000         0.1119060000
        7.0261400000         0.9216660000
        2.1120500000        -0.0025691900
 p    3  1.00
       30.6331000000         0.0383119000
        7.0261400000         0.2374030000
        2.1120500000         0.8175920000
 s    1  1.00
        0.6840090000         1.0000000000
 p    1  1.00
        0.6840090000         1.0000000000
 s    1  1.00
        0.2008780000         1.0000000000
 p    1  1.00
        0.2008780000         1.0000000000
 d    1  1.00
        0.9130000000         1.0000000000

  7 0
 s    6  1.00
     8588.5000000000         0.0018951500
     1297.2300000000         0.0143859000
      299.2960000000         0.0707320000
       87.3771000000         0.2400010000
       25.6789000000         0.5947970000
        3.7400400000         0.2808020000
 s    3  1.00
       42.1175000000         0.1138890000
        9.6283700000         0.9208110000
        2.8533200000        -0.0032744700
 p    3  1.00
       42.1175000000         0.0365114000
        9.6283700000         0.2371530000
        2.8533200000         0.8197020000
 s    1  1.00
        0.9056610000         1.0000000000
 p    1  1.00
        0.9056610000         1.0000000000
 s    1  1.00
        0.2556110000         1.0000000000
 p    1  1.00
        0.2556110000         1.0000000000
 d    1  1.00
        1.2920000000         1.0000000000

  8 0
 s    6  1.00
     8588.5000000000         0.0018951500
     1297.2300000000         0.0143859000
      299.2960000000         0.0707320000
       87.3771000000         0.2400010000
       25.6789000000         0.5947970000
        3.7400400000         0.2808020000
 s    3  1.00
       42.1175000000         0.1138890000
        9.6283700000         0.9208110000
        2.8533200000        -0.0032744700
 p    3  1.00
       42.1175000000         0.0365114000
        9.6283700000         0.2371530000
        2.8533200000         0.8197020000
 s    1  1.00
        0.9056610000         1.0000000000
 p    1  1.00
        0.9056610000         1.0000000000
 s    1  1.00
        0.2556110000         1.0000000000
 p    1  1.00
        0.2556110000         1.0000000000
 d    1  1.00
        1.2920000000         1.0000000000

  9 0
 s    6  1.00
     4563.2400000000         0.0019666500
      682.0240000000         0.0152306000
      154.9730000000         0.0761269000
       44.4553000000         0.2608010000
       13.0290000000         0.6164620000
        1.8277300000         0.2210060000
 s    3  1.00
       20.9642000000         0.1146600000
        4.8033100000         0.9199990000
        1.4593300000        -0.0030306800
 p    3  1.00
       20.9642000000         0.0402487000
        4.8033100000         0.2375940000
        1.4593300000         0.8158540000
 s    1  1.00
        0.4834560000         1.0000000000
 p    1  1.00
        0.4834560000         1.0000000000
 s    1  1.00
        0.1455850000         1.0000000000
 p    1  1.00
        0.1455850000         1.0000000000
 d    1  1.00
        0.6260000000         1.0000000000

  10 0
 s    3  1.00
       33.8650000000         0.0254938000
        5.0947900000         0.1903730000
        1.1587900000         0.8521610000
 s    1  1.00
        0.3258400000         1.0000000000
 s    1  1.00
        0.1027410000         1.0000000000

  11 0
 s    6  1.00
     4563.2400000000         0.0019666500
      682.0240000000         0.0152306000
      154.9730000000         0.0761269000
       44.4553000000         0.2608010000
       13.0290000000         0.6164620000
        1.8277300000         0.2210060000
 s    3  1.00
       20.9642000000         0.1146600000
        4.8033100000         0.9199990000
        1.4593300000        -0.0030306800
 p    3  1.00
       20.9642000000         0.0402487000
        4.8033100000         0.2375940000
        1.4593300000         0.8158540000
 s    1  1.00
        0.4834560000         1.0000000000
 p    1  1.00
        0.4834560000         1.0000000000
 s    1  1.00
        0.1455850000         1.0000000000
 p    1  1.00
        0.1455850000         1.0000000000
 d    1  1.00
        0.6260000000         1.0000000000

  12 0
 s    3  1.00
       33.8650000000         0.0254938000
        5.0947900000         0.1903730000
        1.1587900000         0.8521610000
 s    1  1.00
        0.3258400000         1.0000000000
 s    1  1.00
        0.1027410000         1.0000000000

  13 0
 s    6  1.00
     4563.2400000000         0.0019666500
      682.0240000000         0.0152306000
      154.9730000000         0.0761269000
       44.4553000000         0.2608010000
       13.0290000000         0.6164620000
        1.8277300000         0.2210060000
 s    3  1.00
       20.9642000000         0.1146600000
        4.8033100000         0.9199990000
        1.4593300000        -0.0030306800
 p    3  1.00
       20.9642000000         0.0402487000
        4.8033100000         0.2375940000
        1.4593300000         0.8158540000
 s    1  1.00
        0.4834560000         1.0000000000
 p    1  1.00
        0.4834560000         1.0000000000
 s    1  1.00
        0.1455850000         1.0000000000
 p    1  1.00
        0.1455850000         1.0000000000
 d    1  1.00
        0.6260000000         1.0000000000

  14 0
 s    3  1.00
       33.8650000000         0.0254938000
        5.0947900000         0.1903730000
        1.1587900000         0.8521610000
 s    1  1.00
        0.3258400000         1.0000000000
 s    1  1.00
        0.1027410000         1.0000000000

[5D]
[9G]

[MO]
 Sym= A
 Ene=        -2.0596438505e+01
 Spin= Alpha
 Occup=         0.0000000000e+00
  1        -8.0728501997e-08
  2         8.1767434695e-07
  3        -1.0948541032e-06
  4        -1.9319365276e-06
  5        -1.7023388625e-09
  6        -2.1072113104e-06
  7         1.6170084373e-06
  8         8.7187442833e-06
  9         5.6770376391e-09
 10        -1.2872679959e-04
 11        -2.4551395667e-04
 12        -2.4563231342e-04
 13        -5.7373693303e-08
 14         4.5424978546e-06
 15         1.2683330201e-09
 16         7.2145111584e-09
 17        -5.1253760028e-06
 18         2.7631925081e-06
 19        -5.2980219801e-07
 20         4.7778006105e-07
 21         1.9775874318e-07
 22        -1.7956775251e-06
 23         4.5719686982e-09
 24        -3.7980028338e-07
 25        -7.0434775533e-06
 26         1.1381157216e-05
 27        -1.6418415193e-08
 28        -8.7718733374e-04
 29        -6.1408485872e-04
 30         5.1671277822e-04
 31         2.5375976876e-08
 32         1.6894054602e-06
 33        -8.6920727411e-10
 34         5.1026421323e-10
 35         9.7120529600e-06
 36         1.5600135181e-05
 37        -7.5237131539e-09
 38        -2.8738908001e-09
 39         5.6482653579e-08
 40        -5.1095200145e-06
 41         8.7512138879e-10
 42        -6.0415410240e-08
 43        -9.9758576320e-08
 44         1.9029235999e-05
 45        -3.6453776651e-09
 46         1.7699424553e-06
 47        -6.5688498523e-08
 48         1.6688140854e-03
 49         5.8319494020e-09
 50        -1.4685676093e-08
 51        -3.2964227557e-09
 52        -4.0969719408e-09
 53        -1.2309984957e-07
 54         2.5878077803e-05
 55        -1.1412512073e-06
 56         2.8726554574e-05
 57         2.7571794832e-05
 58         6.0296842158e-08
 59         4.4426040284e-05
 60        -8.9946372587e-05
 61        -1.2737217099e-07
 62         1.8976697019e-07
 63        -1.7133388327e-07
 64        -6.8515268230e-05
 65         2.9414785296e-09
 66        -9.6272860347e-07
 67        -7.7552350773e-07
 68        -4.3428797160e-04
 69         2.1177286238e-08
 70        -2.6316811953e-06
 71        -9.9295109562e-07
 72        -1.3143530583e-03
 73         4.5779298187e-08
 74         3.8244266420e-07
 75         1.3299487366e-08
 76         1.3238425733e-07
 77         5.8327691178e-07
 78        -2.7409979291e-04
 79         3.8860869175e-01
 80         3.3239006199e-01
 81        -7.0608537209e-04
 82         1.2762013754e-03
 83         3.2220502180e-07
 84         3.7543648934e-03
 85         2.7666982310e-04
 86        -5.2142812989e-04
 87        -1.2864921727e-07
 88        -1.0181038077e-03
 89         1.8274256926e-04
 90        -1.1629869525e-04
 91        -9.4032105107e-08
 92        -3.2986679761e-05
 93        -2.1481007068e-08
 94        -7.5859096252e-08
 95         9.6772509292e-05
 96         1.4409287037e-04
 97        -3.9132969915e-01
 98        -3.3471743223e-01
 99         7.1101461206e-04
100         1.2849739754e-03
101        -4.4641376812e-07
102        -3.7805094044e-03
103        -2.7836990665e-04
104        -5.2481315418e-04
105         1.7656617622e-07
106         1.0220848103e-03
107        -1.8274120163e-04
108        -1.1672064328e-04
109         1.1466957833e-07
110         3.3308481564e-05
111         6.1577735673e-09
112        -8.0236294135e-08
113        -9.7395601418e-05
114         1.4488118118e-04
115         8.1834649189e-08
116        -8.2434895108e-07
117         1.0961891677e-06
118        -1.9168458099e-06
119         1.2187928618e-09
120         2.2199869830e-06
121        -1.6266926261e-06
122         8.6566276446e-06
123        -3.8996698321e-09
124         1.2647681569e-04
125         2.4428921879e-04
126        -2.4537860862e-04
127         4.1149085796e-08
128        -4.4949694080e-06
129        -1.3731454077e-09
130         7.1843463775e-09
131         5.1002844759e-06
132         2.7460370774e-06
133         1.1477471270e-06
134        -2.8656913459e-05
135        -2.7583720663e-05
136         5.2724471176e-07
137        -4.6995442605e-07
138        -2.2916553699e-07
139        -1.8021608444e-06
140        -3.9522053786e-09
141         3.5789740954e-07
142         7.1309677704e-06
143         1.1329973533e-05
144         1.3340399478e-08
145         8.7775412151e-04
146         6.1202633600e-04
147         5.1564614958e-04
148         1.0718657929e-08
149        -1.6326303670e-06
150         2.2526198960e-09
151         2.9583180657e-09
152        -9.5869877454e-06
153         1.5477861402e-05
154        -5.6388949677e-08
155        -4.4271269289e-05
156         8.9536772577e-05
157        -1.0924639916e-10
158        -2.4905783459e-10
159        -1.4618893767e-09
160        -2.6028224324e-07
161         1.8217109393e-10
162        -1.1750951244e-08
163         9.0087225028e-09
164        -1.9737584574e-07
165        -5.7830689615e-10
166        -8.9509709690e-08
167         3.1080325502e-07
168        -2.4819650136e-04
169        -1.0415277782e-09
170        -7.1714162411e-10
171         1.5150714342e-10
172        -4.5983517322e-09
173        -1.4695148677e-09
174        -3.4542741048e-06
175        -9.6238266644e-09
176         1.0451137195e-07
177         3.9702745455e-08
 Sym= A
 Ene=        -2.0596386274e+01
 Spin= Alpha
 Occup=         0.0000000000e+00
  1        -1.5873186248e-07
  2         9.5897667449e-07
  3        -1.9543866799e-07
  4         2.1556177416e-06
  5         1.0906054859e-09
  6        -1.6163609939e-05
  7         1.3925929157e-06
  8        -8.8695228938e-06
  9        -4.0748690854e-09
 10         3.2188773353e-04
 11         1.7459791522e-04
 12         3.5527507104e-05
 13         1.8559354113e-08
 14        -6.7939925407e-06
 15         9.5761354452e-11
 16        -3.6109811230e-10
 17         3.5773069146e-06
 18        -2.4475516741e-06
 19         3.6468523683e-07
 20        -1.1202365973e-06
 21         4.4982529554e-06
 22        -9.3590652519e-07
 23        -1.0236610047e-09
 24         3.1273364038e-06
 25        -1.2550777023e-05
 26        -7.2944901393e-06
 27         7.1853203699e-09
 28        -8.4227707026e-05
 29         2.9281765226e-04
 30        -1.5109840744e-04
 31        -2.7989414322e-08
 32        -8.1363423463e-06
 33        -1.5198961068e-09
 34         3.4431636302e-09
 35        -1.7884093248e-05
 36        -1.7470807420e-05
 37         2.1565458722e-06
 38         8.2260948258e-07
 39        -1.6188761434e-05
 40        -1.7820163889e-08
 41        -1.5082081294e-09
 42         1.7323970832e-05
 43         2.8588725411e-05
 44         6.6344441823e-08
 45         8.9872534073e-09
 46        -5.0719351804e-04
 47         1.9147194412e-05
 48         5.8189132095e-06
 49         5.5470992444e-08
 50         4.2120948294e-06
 51         6.7652261027e-09
 52        -1.0067433990e-09
 53         3.5287525610e-05
 54         9.0282076847e-08
 55        -9.3398903814e-07
 56        -9.8809267326e-06
 57         1.7925862487e-06
 58        -5.6127765318e-07
 59        -2.2014317382e-05
 60         5.8413710214e-05
 61         3.6478749344e-05
 62        -5.4371835365e-05
 63         4.9070800442e-05
 64        -2.3872966336e-07
 65        -2.1789164108e-08
 66         2.7577186527e-04
 67         2.2220523195e-04
 68        -1.5150320282e-06
 69        -7.8720074376e-08
 70         7.5348662722e-04
 71         2.8441716496e-04
 72        -4.5830789113e-06
 73        -1.6805376944e-07
 74        -1.0960230058e-04
 75        -3.2693417484e-08
 76        -1.5735766013e-08
 77        -1.6718717421e-04
 78        -9.5615986367e-07
 79         3.9133240692e-01
 80         3.3471989891e-01
 81        -7.0877591700e-04
 82         1.2616637015e-03
 83         3.2815398670e-07
 84         3.7599218149e-03
 85         2.4457573820e-04
 86        -4.8693945675e-04
 87        -1.3014847394e-07
 88        -5.7358609335e-04
 89         3.5624352036e-07
 90        -6.0757499136e-05
 91         3.7178284347e-08
 92        -4.6158077578e-05
 93        -3.0955131236e-08
 94        -6.1046324938e-08
 95         8.9681770892e-05
 96         1.1352159082e-04
 97         3.8861141772e-01
 98         3.3239254563e-01
 99        -7.0383310620e-04
100        -1.2527290214e-03
101         4.4496251936e-07
102         3.7336365364e-03
103         2.4263961041e-04
104         4.8328933366e-04
105        -1.7315143485e-07
106        -5.6647268024e-04
107        -9.1797214481e-07
108         5.9945716915e-05
109         2.8072674063e-08
110        -4.5927353273e-05
111        -1.8349927780e-08
112         6.1037806848e-08
113         8.9003939706e-05
114        -1.1251316239e-04
115        -1.5816537941e-07
116         9.5325077797e-07
117        -1.8780368965e-07
118        -2.1690404533e-06
119         5.8361159680e-10
120        -1.6148532782e-05
121         1.3812993341e-06
122         8.9301247495e-06
123        -2.4106120230e-09
124         3.2277787170e-04
125         1.7630606066e-04
126        -3.7239655768e-05
127         1.3463551206e-08
128        -6.8255122826e-06
129         4.9772275659e-12
130         5.1985614776e-10
131         3.6129620721e-06
132         2.4667584048e-06
133        -9.2601306074e-07
134        -1.0080979015e-05
135         1.6002377060e-06
136         3.6837163190e-07
137        -1.1235384960e-06
138         4.4967753203e-06
139         9.2337971637e-07
140         2.7357662239e-10
141         3.1299307849e-06
142        -1.2501425435e-05
143         7.3735404335e-06
144         3.0294322978e-09
145        -7.8109196590e-05
146         2.9709322794e-04
147         1.5469827869e-04
148        -1.3186800242e-08
149        -8.1479036656e-06
150        -6.7366885436e-10
151        -2.2718039796e-09
152        -1.7951375079e-05
153         1.7579169028e-05
154        -5.6168293312e-07
155        -2.2323637398e-05
156         5.9039893447e-05
157         3.1333948713e-08
158         7.1249454383e-08
159         4.1889319069e-07
160        -9.1373252246e-10
161        -5.5157081268e-11
162         3.3704625785e-06
163        -2.5816350341e-06
164        -6.5486140713e-10
165        -1.4741654990e-09
166         2.5710298325e-05
167        -8.9099687786e-05
168        -8.6552353584e-07
169        -2.6383050218e-08
170         2.0631256895e-07
171         3.1304143246e-09
172        -2.1417853080e-10
173         4.2174765186e-07
174        -1.2037276298e-08
175         2.7591908279e-06
176        -2.9961390894e-05
177        -1.1377041894e-05
 Sym= A
 Ene=        -1.5852610040e+01
 Spin= Alpha
 Occup=         0.0000000000e+00
  1        -1.1748547192e-07
  2        -1.0490454527e-06
  3         1.0148536804e-06
  4        -2.1294464556e-07
  5        -9.0723984179e-10
  6         7.6789401255e-06
  7        -1.0717815920e-06
  8         4.8858109351e-06
  9         5.2244466685e-09
 10        -5.3327398962e-04
 11        -1.7537292361e-04
 12         8.1411407142e-05
 13        -1.8275720032e-08
 14        -1.2288679666e-06
 15         7.8102042665e-10
 16        -2.8117378876e-09
 17         1.4807379530e-06
 18        -7.6454777821e-06
 19         1.1655153285e-06
 20        -1.5731502536e-06
 21        -1.2762635966e-05
 22         1.0421566406e-05
 23         1.5459118550e-09
 24        -1.1708083175e-05
 25         4.4250403124e-05
 26        -5.1837602897e-05
 27        -7.3232192269e-09
 28         5.7826738946e-04
 29        -4.1058273914e-04
 30        -2.4863422703e-04
 31         3.4841463640e-08
 32        -1.3262382170e-05
 33         1.9694827280e-10
 34        -2.0170507291e-09
 35         1.3727393188e-06
 36        -2.2154763883e-05
 37         5.3419692210e-06
 38        -1.9606521663e-05
 39         6.0551223130e-05
 40        -2.5415695826e-11
 41        -3.7233538817e-09
 42         1.5162177547e-04
 43         1.9028965639e-04
 44        -1.2509660095e-10
 45        -5.5863058881e-09
 46         7.4090343916e-05
 47         9.1414858924e-04
 48        -1.7715900037e-09
 49        -4.0847465398e-08
 50        -4.5639064234e-06
 51        -9.9150756185e-09
 52         7.5248843081e-10
 53         1.2582079150e-04
 54         1.2603640978e-10
 55        -2.0956794647e-06
 56         5.2931990810e-06
 57        -1.4385578266e-05
 58        -8.6511781836e-06
 59         9.0018657333e-05
 60         5.0393825610e-05
 61         5.5789705657e-01
 62         4.6829370166e-01
 63         3.9006679080e-04
 64         2.7494321806e-09
 65        -1.8457781247e-07
 66         4.2162822026e-03
 67        -1.9448734175e-04
 68        -1.0101645151e-09
 69         1.9435941272e-08
 70        -8.1248616759e-04
 71         5.3011202946e-04
 72         1.9420492632e-09
 73        -3.2533272517e-08
 74        -2.1276647452e-04
 75        -8.0491352175e-08
 76        -1.8172895539e-08
 77        -5.4974284523e-05
 78         3.0124196246e-10
 79        -1.1707896815e-04
 80        -1.6118908470e-04
 81        -5.6936372117e-05
 82         9.1703579145e-05
 83         1.4259227311e-08
 84         2.5482121144e-04
 85        -1.3707799022e-04
 86         3.1780821719e-04
 87         5.0228229830e-08
 88        -1.5679533844e-05
 89        -5.7134127651e-05
 90        -5.9691762522e-05
 91        -1.6349582686e-08
 92        -4.8157575869e-05
 93         6.1043419348e-10
 94         3.7346067213e-08
 95        -9.9361348614e-05
 96        -1.2280059058e-04
 97        -1.1707946261e-04
 98        -1.6118982759e-04
 99        -5.6936591528e-05
100        -9.1703934924e-05
101         2.3022266768e-08
102         2.5482246147e-04
103        -1.3707857322e-04
104        -3.1780905076e-04
105         7.7049446461e-08
106        -1.5681468142e-05
107        -5.7133790828e-05
108         5.9692398600e-05
109        -1.7681499652e-08
110        -4.8157796109e-05
111        -1.1224775289e-08
112        -5.3697172850e-08
113        -9.9361538126e-05
114         1.2280115491e-04
115        -1.1748741312e-07
116        -1.0490328336e-06
117         1.0148674177e-06
118         2.1293746886e-07
119        -6.0426994382e-10
120         7.6788925818e-06
121        -1.0719107983e-06
122        -4.8857857234e-06
123         4.1927519869e-09
124        -5.3327393092e-04
125        -1.7537303847e-04
126        -8.1411613202e-05
127        -1.8857987202e-08
128        -1.2288413974e-06
129         1.2614681206e-09
130         2.7436006035e-09
131         1.4806799746e-06
132         7.6454816051e-06
133        -2.0956783238e-06
134         5.2930853857e-06
135        -1.4385675230e-05
136         1.1655106470e-06
137        -1.5731339610e-06
138        -1.2762616949e-05
139        -1.0421536209e-05
140         4.4161255093e-12
141        -1.1708184766e-05
142         4.4250176911e-05
143         5.1837319568e-05
144        -1.9034133353e-09
145         5.7826519133e-04
146        -4.1058295871e-04
147         2.4863354974e-04
148         3.4512184990e-08
149        -1.3262382342e-05
150         1.4543250980e-09
151         3.7191669492e-09
152         1.3728917186e-06
153         2.2154716284e-05
154        -8.6511780875e-06
155         9.0018629710e-05
156         5.0393788758e-05
157        -1.6025098485e-07
158         7.0875831309e-07
159         6.0826927913e-08
160        -2.0189798167e-12
161         1.4123640094e-09
162        -1.6606673670e-05
163         7.0025458543e-07
164         6.7355745700e-12
165        -4.3605088345e-09
166         2.2913043046e-04
167         1.8116490570e-04
168        -2.1209581579e-11
169         9.4806441115e-08
170        -5.7494150038e-06
171         1.3238793307e-09
172         3.2503663002e-10
173        -5.4360813618e-06
174         1.9341391204e-11
175        -4.0076917817e-06
176         3.3181254591e-05
177         3.0159593635e-05
 Sym= A
 Ene=        -1.1313586095e+01
 Spin= Alpha
 Occup=         0.0000000000e+00
  1         7.1241952739e-05
  2         6.2340381399e-05
  3         5.7588444800e-06
  4         8.1890030199e-06
  5         1.5074740842e-09
  6        -3.0850389694e-05
  7        -2.8103860337e-05
  8        -1.8808952320e-05
  9        -3.7306360494e-09
 10        -3.7344407617e-04
 11        -1.2265088167e-04
 12        -6.8055893577e-05
 13         2.8369847523e-08
 14        -3.9458407140e-06
 15         2.1931787496e-10
 16        -1.5774238118e-09
 17        -1.7980626204e-05
 18        -3.3857671947e-05
 19         9.4694317805e-03
 20         7.8060722832e-03
 21         1.1173124760e-04
 22        -2.1243080377e-04
 23         4.5706704689e-09
 24         2.2814620937e-04
 25        -2.6802461580e-05
 26         6.8273142671e-05
 27         1.8332383316e-09
 28         5.9974283536e-04
 29        -4.2272586100e-04
 30        -3.4672286783e-04
 31        -1.8762088321e-08
 32         8.1753277907e-05
 33         6.0463589152e-09
 34        -4.9611572717e-10
 35         2.2094787024e-05
 36        -9.9785637945e-06
 37         5.6318665211e-01
 38         4.6640955723e-01
 39         1.2888695208e-03
 40        -8.8966610408e-10
 41         8.7981647991e-08
 42         4.3059772876e-03
 43        -1.2565001624e-03
 44         2.7742758175e-09
 45        -8.9813441535e-08
 46        -4.5054390285e-04
 47         1.5061323507e-03
 48        -1.4400040386e-10
 49         7.3495511078e-08
 50        -3.0658321391e-04
 51         2.5786766870e-09
 52         1.4325647803e-08
 53        -4.4468795075e-04
 54        -8.3092521136e-10
 55        -1.0188170775e-05
 56         4.4529304359e-05
 57         2.6454701707e-05
 58         6.0660301171e-06
 59         4.0664648361e-05
 60         1.4402832484e-04
 61        -8.5467364538e-05
 62        -1.6381200712e-04
 63        -5.7529678883e-05
 64         7.8878450194e-11
 65         2.2323717836e-09
 66         5.0692334328e-04
 67        -6.4770606883e-04
 68        -3.4317331222e-10
 69         1.0393601647e-07
 70        -6.7440582800e-04
 71         3.9464208595e-04
 72        -5.5892950536e-10
 73        -1.0949680033e-07
 74        -5.6984162066e-05
 75        -2.4952670236e-08
 76         5.8801949106e-09
 77         2.8791021682e-04
 78        -1.2808255680e-10
 79         2.6678679262e-06
 80        -5.7121635125e-06
 81         2.0113352624e-05
 82        -1.7087813151e-05
 83        -8.4843683837e-09
 84         5.6925743546e-05
 85        -1.4581143495e-05
 86         6.1826563394e-05
 87         7.6356698869e-09
 88        -1.0580383591e-04
 89         1.0628207331e-05
 90        -2.9698843815e-05
 91         8.3270369902e-09
 92        -1.4596037543e-05
 93        -7.5833344087e-09
 94         1.2327459496e-08
 95        -1.7846644126e-05
 96        -3.1768403262e-05
 97         2.6678712087e-06
 98        -5.7121776028e-06
 99         2.0113386674e-05
100         1.7087805584e-05
101        -1.0453715578e-08
102         5.6925800130e-05
103        -1.4581297410e-05
104        -6.1826834106e-05
105         1.4987569212e-08
106        -1.0580282274e-04
107         1.0627839514e-05
108         2.9698493975e-05
109         5.8903460321e-09
110        -1.4596089488e-05
111        -1.1375910200e-08
112        -1.6960322540e-08
113        -1.7846643648e-05
114         3.1768555157e-05
115         7.1241665913e-05
116         6.2340115604e-05
117         5.7588158884e-06
118        -8.1889825297e-06
119         1.1777651214e-09
120        -3.0850177510e-05
121        -2.8103656606e-05
122         1.8808779670e-05
123        -3.3640445362e-09
124        -3.7344603029e-04
125        -1.2265178822e-04
126         6.8054720060e-05
127         2.9359336921e-08
128        -3.9458900813e-06
129         9.6652020692e-10
130         2.1634902205e-09
131        -1.7980466278e-05
132         3.3857641567e-05
133        -1.0188155678e-05
134         4.4529031985e-05
135         2.6454386486e-05
136         9.4694251969e-03
137         7.8060666900e-03
138         1.1173107941e-04
139         2.1243034855e-04
140         1.0882806099e-08
141         2.2814675663e-04
142        -2.6801426579e-05
143        -6.8271377691e-05
144         1.0923073721e-09
145         5.9974555065e-04
146        -4.2272670954e-04
147         3.4672399004e-04
148        -1.0388059341e-08
149         8.1752961771e-05