&FCI NORB=9,NELEC=0,MS2=0
ORBSYM=1,1,1,1,
ISYM=1,
/
      2.15433230637254724549e-02 	 1 1 1 1
     -7.36198620634121380594e-05 	 1 2 1 1
      2.87689370939332896004e-04 	 1 3 1 1
     -4.80542120861695253031e-04 	 1 4 1 1
     -2.12389929890106066959e-05 	 1 5 1 1
      6.31441591140870900865e-04 	 1 6 1 1
     -2.34317197970208287256e-04 	 1 7 1 1
      4.10266391632730387522e-05 	 1 8 1 1
     -9.26228097279766459347e-04 	 1 9 1 1
     -7.36198620634156617164e-05 	 2 1 1 1
     -6.13084038754712554176e-02 	 2 2 1 1
     -5.17814849415986752429e-05 	 2 3 1 1
     -4.27692758405132393475e-04 	 2 4 1 1
      3.96329852696491818052e-04 	 2 5 1 1
      6.05435080838224101165e-05 	 2 6 1 1
      5.81262211593093123217e-04 	 2 7 1 1
     -4.40713267915474927756e-04 	 2 8 1 1
      4.19960389015069707110e-05 	 2 9 1 1
      2.87689370939334630728e-04 	 3 1 1 1
     -5.17814849415986549141e-05 	 3 2 1 1
     -1.42246151369657689370e-03 	 3 3 1 1
     -8.13595176655477754328e-04 	 3 4 1 1
     -1.22954378075042985112e-05 	 3 5 1 1
     -2.79957003799572964105e-04 	 3 6 1 1
     -4.10115138490330544564e-04 	 3 7 1 1
     -4.24126088220937931300e-05 	 3 8 1 1
      1.42358608402427543228e-05 	 3 9 1 1
     -4.80542120861688802028e-04 	 4 1 1 1
     -4.27692758405120413041e-04 	 4 2 1 1
     -8.13595176655477645908e-04 	 4 3 1 1
      2.23762288513898628672e-03 	 4 4 1 1
      9.76612176675662781167e-04 	 4 5 1 1
     -8.87417862297712337419e-04 	 4 6 1 1
     -4.99495615611528849705e-04 	 4 7 1 1
      5.11144919738113927060e-05 	 4 8 1 1
     -3.48387629089026934579e-04 	 4 9 1 1
     -2.12389929890121279671e-05 	 5 1 1 1
      3.96329852696488836496e-04 	 5 2 1 1
     -1.22954378075044848585e-05 	 5 3 1 1
      9.76612176675659094879e-04 	 5 4 1 1
      1.07403806456304266176e-02 	 5 5 1 1
     -2.06482436046097605218e-05 	 5 6 1 1
      6.76946640106324004377e-05 	 5 7 1 1
      7.87287597329960734966e-05 	 5 8 1 1
      6.02881063417069003492e-04 	 5 9 1 1
      6.31441591140865263014e-04 	 6 1 1 1
      6.05435080838223830114e-05 	 6 2 1 1
     -2.79957003799574481989e-04 	 6 3 1 1
     -8.87417862297716565807e-04 	 6 4 1 1
     -2.06482436046088863838e-05 	 6 5 1 1
      5.99659456290704342973e-02 	 6 6 1 1
     -1.53385165485486827785e-04 	 6 7 1 1
     -3.70242811990801511590e-05 	 6 8 1 1
      1.16409450905769431173e-04 	 6 9 1 1
     -2.34317197970204167288e-04 	 7 1 1 1
      5.81262211593114373580e-04 	 7 2 1 1
     -4.10115138490330978244e-04 	 7 3 1 1
     -4.99495615611523753954e-04 	 7 4 1 1
      6.76946640106358156746e-05 	 7 5 1 1
     -1.53385165485485391217e-04 	 7 6 1 1
     -4.26634169986446765144e-02 	 7 7 1 1
     -8.65507664996780249830e-04 	 7 8 1 1
      4.50065544228363202586e-04 	 7 9 1 1
      4.10266391632716360656e-05 	 8 1 1 1
     -4.40713267915462784691e-04 	 8 2 1 1
     -4.24126088220939015502e-05 	 8 3 1 1
      5.11144919738076860898e-05 	 8 4 1 1
      7.87287597329981334807e-05 	 8 5 1 1
     -3.70242811990803205656e-05 	 8 6 1 1
     -8.65507664996790875012e-04 	 8 7 1 1
     -3.49422187995735433752e-02 	 8 8 1 1
     -4.89915581466728337554e-04 	 8 9 1 1
     -9.26228097279770362475e-04 	 9 1 1 1
      4.19960389015081565572e-05 	 9 2 1 1
      1.42358608402422715140e-05 	 9 3 1 1
     -3.48387629089027693521e-04 	 9 4 1 1
      6.02881063417069654013e-04 	 9 5 1 1
      1.16409450905769065255e-04 	 9 6 1 1
      4.50065544228359949979e-04 	 9 7 1 1
     -4.89915581466725843889e-04 	 9 8 1 1
      3.05793265146150697320e-02 	 9 9 1 1
      0.00000000000000000000e+00 	 0 0 0 0
