&FCI NORB=9,NELEC=0,MS2=0
ORBSYM=1,1,1,1,
ISYM=1,
/
      7.41026248642570606329e-01 	 1 1 1 1
      4.66461815004953978328e-04 	 1 1 2 1
      9.72674620791826594068e-02 	 1 1 2 2
     -6.61429576271675397428e-04 	 1 1 3 1
     -8.40894703382509453018e-05 	 1 1 3 2
      3.73665192895828446318e-01 	 1 1 3 3
     -3.53158907807661973099e-03 	 1 1 4 1
      2.22406453544305544260e-04 	 1 1 4 2
     -4.85761505144373991610e-03 	 1 1 4 3
      3.16393883877930770510e-01 	 1 1 4 4
      5.00590342529700217493e-04 	 1 1 5 1
      7.37612109132354098334e-04 	 1 1 5 2
     -2.11735461990406682907e-04 	 1 1 5 3
      1.13710652930463368415e-03 	 1 1 5 4
      1.44196306509954019770e-01 	 1 1 5 5
      1.26016086013872063466e-03 	 1 1 6 1
      2.43160610473358411183e-04 	 1 1 6 2
      5.90060870286308013222e-03 	 1 1 6 3
      3.74967273116293912244e-03 	 1 1 6 4
      3.69161051703984828152e-05 	 1 1 6 5
      4.13650575663102981760e-01 	 1 1 6 6
      5.09346663718603098747e-03 	 1 1 7 1
     -9.93410045495482507683e-04 	 1 1 7 2
     -2.02640303360548772182e-03 	 1 1 7 3
     -1.29497892213448293625e-03 	 1 1 7 4
      8.39417018350256823565e-04 	 1 1 7 5
     -7.65721194090228558533e-05 	 1 1 7 6
      1.74781650105178765209e-01 	 1 1 7 7
      5.46067976898654975151e-04 	 1 1 8 1
     -1.44671464140544436816e-03 	 1 1 8 2
     -6.09438354977188636490e-05 	 1 1 8 3
     -1.50625824144419223280e-03 	 1 1 8 4
     -1.10837568983678923934e-03 	 1 1 8 5
      9.20560631736262703021e-06 	 1 1 8 6
     -1.50705594127352807132e-03 	 1 1 8 7
      9.82974080615675871453e-02 	 1 1 8 8
     -5.84938742546504356762e-03 	 1 1 9 1
     -7.67968212851475543618e-04 	 1 1 9 2
      3.26060215796210035432e-05 	 1 1 9 3
      7.42728387952443940868e-04 	 1 1 9 4
      1.76470430997639001099e-03 	 1 1 9 5
     -1.68345065446066010847e-03 	 1 1 9 6
      4.77029785895446457877e-03 	 1 1 9 7
      6.24203708935251906642e-04 	 1 1 9 8
      2.22488202705721671570e-01 	 1 1 9 9
      4.66461815004958640397e-04 	 2 1 1 1
      2.36019147583797177638e-05 	 2 1 2 1
      1.47242620292843445946e-03 	 2 1 2 2
      1.10519788036080715879e-04 	 2 1 3 1
      1.39058415197051497029e-06 	 2 1 3 2
     -5.48068535730121693915e-04 	 2 1 3 3
     -5.10510613360664168917e-05 	 2 1 4 1
      2.66672040394192111845e-05 	 2 1 4 2
     -2.79051907781915042828e-05 	 2 1 4 3
     -9.73467672928170105022e-05 	 2 1 4 4
     -1.69849208495442677247e-06 	 2 1 5 1
      4.10018946989718064246e-06 	 2 1 5 2
     -2.79240424629204032465e-07 	 2 1 5 3
      1.22703301683724423188e-05 	 2 1 5 4
     -1.30913026343302754543e-04 	 2 1 5 5
      4.56617109179037036141e-05 	 2 1 6 1
     -6.46100882576074293741e-06 	 2 1 6 2
      5.83073173647805423608e-06 	 2 1 6 3
     -5.23676650039337355217e-06 	 2 1 6 4
     -5.68950246382281442214e-07 	 2 1 6 5
      1.51036814930019714807e-04 	 2 1 6 6
     -6.23700318902674018023e-06 	 2 1 7 1
      1.04005914910498860749e-04 	 2 1 7 2
      9.31779163277645741691e-06 	 2 1 7 3
      1.14583095502163303603e-04 	 2 1 7 4
      2.03374064333802019892e-06 	 2 1 7 5
      1.53783785650121805152e-07 	 2 1 7 6
      2.28223020188343781074e-04 	 2 1 7 7
      2.50823018356717822097e-06 	 2 1 8 1
      5.01522484508236862373e-05 	 2 1 8 2
      6.54400395091848216402e-07 	 2 1 8 3
      3.26359208038142829759e-06 	 2 1 8 4
      3.68385212891551004112e-05 	 2 1 8 5
      4.86225824943676732322e-09 	 2 1 8 6
      4.67230047327379507190e-05 	 2 1 8 7
      1.45209225157183816459e-04 	 2 1 8 8
     -2.17534637914663659796e-05 	 2 1 9 1
      1.89848921268936499768e-05 	 2 1 9 2
     -1.39654135810421447342e-06 	 2 1 9 3
     -2.37929189702077175419e-06 	 2 1 9 4
      2.87437144179082334789e-05 	 2 1 9 5
     -2.73062298314514735121e-06 	 2 1 9 6
     -1.26995733488902255048e-05 	 2 1 9 7
      4.52282535824088855093e-06 	 2 1 9 8
     -1.80349018654799172177e-04 	 2 1 9 9
      9.72674620791827149180e-02 	 2 2 1 1
      1.47242620292844725305e-03 	 2 2 2 1
      6.32088714867819478904e-01 	 2 2 2 2
     -5.46875774660257434057e-04 	 2 2 3 1
      5.72366570892756830122e-05 	 2 2 3 2
      1.28289533438275316080e-01 	 2 2 3 3
      3.77855276656437677127e-03 	 2 2 4 1
      2.91727364106221694062e-03 	 2 2 4 2
      1.84090764031786418599e-03 	 2 2 4 3
      1.96202998203870965233e-01 	 2 2 4 4
     -6.76385881429674524698e-05 	 2 2 5 1
     -2.77801770866737893217e-03 	 2 2 5 2
      2.80416573336919383369e-05 	 2 2 5 3
     -2.96049060097075718290e-03 	 2 2 5 4
      1.73385262548046648057e-01 	 2 2 5 5
     -2.11399553338096745508e-03 	 2 2 6 1
     -8.34397175653298506931e-04 	 2 2 6 2
      1.11307300289167172488e-03 	 2 2 6 3
      2.04149772217063207869e-03 	 2 2 6 4
      6.86145295180204861565e-05 	 2 2 6 5
     -1.75547071700180024045e-03 	 2 2 6 6
     -1.06834148725863577883e-03 	 2 2 7 1
      1.53544713005852040411e-02 	 2 2 7 2
      2.39160303192483079254e-03 	 2 2 7 3
     -5.05712481778960000825e-04 	 2 2 7 4
      1.16843346640515578783e-03 	 2 2 7 5
      1.12450884935982290021e-03 	 2 2 7 6
      3.77568795687777680747e-01 	 2 2 7 7
     -7.35846343917949472901e-05 	 2 2 8 1
     -1.50142726492178864295e-02 	 2 2 8 2
      2.21466323248701755459e-04 	 2 2 8 3
      8.18879319981086770466e-04 	 2 2 8 4
     -2.10199447309960488900e-03 	 2 2 8 5
      2.00910610090066898276e-04 	 2 2 8 6
      7.85266653617675350341e-03 	 2 2 8 7
      3.62208061131105929498e-01 	 2 2 8 8
      3.45501325356505420427e-03 	 2 2 9 1
      1.71073941004702798248e-03 	 2 2 9 2
      2.60303043318220407500e-04 	 2 2 9 3
      3.08834260627072242425e-03 	 2 2 9 4
     -4.77247838377407602312e-03 	 2 2 9 5
     -1.54140959743498281954e-04 	 2 2 9 6
     -1.69594042770534157716e-03 	 2 2 9 7
      2.02213418860584109860e-03 	 2 2 9 8
      1.12103371536196261271e-01 	 2 2 9 9
     -6.61429576271735136968e-04 	 3 1 1 1
      1.10519788036081678109e-04 	 3 1 2 1
     -5.46875774660210488103e-04 	 3 1 2 2
      5.31189785058606457613e-03 	 3 1 3 1
      3.15046571283573001015e-06 	 3 1 3 2
     -1.10832276443196941357e-02 	 3 1 3 3
     -7.68059688205284833359e-04 	 3 1 4 1
     -1.34242737180811667072e-04 	 3 1 4 2
      3.02405127095022429186e-05 	 3 1 4 3
      2.52155686722763290597e-03 	 3 1 4 4
     -4.72521579833541354051e-05 	 3 1 5 1
      4.99569399020584837200e-06 	 3 1 5 2
     -1.38055671655254897246e-05 	 3 1 5 3
      1.12211736453141932256e-04 	 3 1 5 4
      1.03696637670567083991e-03 	 3 1 5 5
      1.37790846611740395999e-03 	 3 1 6 1
     -3.81529740715603293388e-06 	 3 1 6 2
     -4.35590005298919691248e-04 	 3 1 6 3
     -1.15680412607944640849e-04 	 3 1 6 4
      1.71280016900163118916e-06 	 3 1 6 5
      4.50483176229992537953e-03 	 3 1 6 6
     -4.13455989497447484564e-04 	 3 1 7 1
      1.21646385351463121624e-04 	 3 1 7 2
      1.30798552386627003202e-04 	 3 1 7 3
      3.91107089333944180683e-04 	 3 1 7 4
      3.73567219989076200449e-05 	 3 1 7 5
      1.21382592564514506765e-05 	 3 1 7 6
     -1.23543808500242756690e-03 	 3 1 7 7
      3.14790855714028634132e-05 	 3 1 8 1
     -3.73335573795882474067e-05 	 3 1 8 2
     -2.92257995687821086158e-06 	 3 1 8 3
     -3.54318990390589517547e-05 	 3 1 8 4
      3.39888019359431782612e-07 	 3 1 8 5
     -1.54865798729471754575e-06 	 3 1 8 6
      1.34876689654715911225e-05 	 3 1 8 7
      9.37732860400117295731e-05 	 3 1 8 8
     -3.22023058802125579760e-05 	 3 1 9 1
      2.47871904453091047643e-05 	 3 1 9 2
     -8.42706128625288919008e-05 	 3 1 9 3
      4.02449698957256908963e-04 	 3 1 9 4
      6.66943397767169707420e-05 	 3 1 9 5
     -8.58720066392921642026e-06 	 3 1 9 6
      3.38685204310892505001e-05 	 3 1 9 7
      1.78843696610701667106e-05 	 3 1 9 8
      2.65451669521610646510e-03 	 3 1 9 9
     -8.40894703382569897289e-05 	 3 2 1 1
      1.39058415197096008611e-06 	 3 2 2 1
      5.72366570892727150087e-05 	 3 2 2 2
      3.15046571283845406811e-06 	 3 2 3 1
      4.08541566929224571293e-05 	 3 2 3 2
     -3.33153815027890497918e-03 	 3 2 3 3
     -6.40370591423163531631e-05 	 3 2 4 1
      2.72229910610357292726e-05 	 3 2 4 2
     -3.13994448145082677860e-05 	 3 2 4 3
      4.85776145107310328500e-04 	 3 2 4 4
      6.48046905522310669823e-07 	 3 2 5 1
      1.51566781191752333419e-05 	 3 2 5 2
     -5.73657954380237934629e-06 	 3 2 5 3
     -2.29943060114370962188e-06 	 3 2 5 4
     -4.71541856449599788067e-05 	 3 2 5 5
      9.03783589889763224614e-07 	 3 2 6 1
      1.79840154570470452180e-06 	 3 2 6 2
      2.82522051244649870520e-05 	 3 2 6 3
      1.13303238697514552783e-05 	 3 2 6 4
     -2.03697094850275196498e-06 	 3 2 6 5
     -1.23509780590637754417e-04 	 3 2 6 6
     -1.23294517507654458440e-05 	 3 2 7 1
      6.72444003032117432195e-05 	 3 2 7 2
     -4.53830260736513783752e-05 	 3 2 7 3
     -9.05555158606745398838e-06 	 3 2 7 4
     -5.80281134195267416149e-06 	 3 2 7 5
     -1.19731827122543099487e-07 	 3 2 7 6
      7.77186870470284092184e-04 	 3 2 7 7
      2.22251724425079309552e-06 	 3 2 8 1
      6.70011945726616708245e-05 	 3 2 8 2
      1.32311848870654446999e-05 	 3 2 8 3
      1.48457449081673600183e-06 	 3 2 8 4
      1.59051660967420546822e-06 	 3 2 8 5
     -8.96432507383061203201e-07 	 3 2 8 6
      4.06515501101740252478e-07 	 3 2 8 7
     -1.81540054760667110860e-04 	 3 2 8 8
      1.69788722743957212833e-05 	 3 2 9 1
     -6.16989162088797141409e-06 	 3 2 9 2
     -1.26974703311150804709e-05 	 3 2 9 3
     -9.49426397136933913630e-06 	 3 2 9 4
      2.12001059591969315783e-06 	 3 2 9 5
     -4.53256750205239288459e-06 	 3 2 9 6
      9.21466651223771356842e-06 	 3 2 9 7
     -1.20783680266509343432e-07 	 3 2 9 8
      9.57027367712765561318e-05 	 3 2 9 9
      3.73665192895828668362e-01 	 3 3 1 1
     -5.48068535730112044516e-04 	 3 3 2 1
      1.28289533438275177302e-01 	 3 3 2 2
     -1.10832276443198103622e-02 	 3 3 3 1
     -3.33153815027890237710e-03 	 3 3 3 2
      7.68480430020322069495e-01 	 3 3 3 3
     -5.00569936042266887960e-04 	 3 3 4 1
      1.40714633239754586397e-03 	 3 3 4 2
      5.02667055487342889775e-03 	 3 3 4 3
      2.15198843706889936245e-01 	 3 3 4 4
      2.85430476937394888085e-04 	 3 3 5 1
      4.45788385909074900103e-04 	 3 3 5 2
      3.71249164842704410146e-04 	 3 3 5 3
     -3.84311732781946802963e-04 	 3 3 5 4
      1.08936564726320003760e-01 	 3 3 5 5
     -4.01038700520097313867e-03 	 3 3 6 1
      2.29355765517542166962e-04 	 3 3 6 2
     -1.21182715252893065849e-04 	 3 3 6 3
      2.63375188218362881257e-03 	 3 3 6 4
      3.05175008540010507063e-05 	 3 3 6 5
      2.30854349395746588636e-01 	 3 3 6 6
      3.83840377404743530315e-03 	 3 3 7 1
     -2.53953252110402120587e-03 	 3 3 7 2
      2.79430634298475028335e-03 	 3 3 7 3
     -3.18137310564664066784e-03 	 3 3 7 4
      6.99014540450322921505e-06 	 3 3 7 5
     -1.77659111270190585817e-04 	 3 3 7 6
      1.88941547611629290238e-01 	 3 3 7 7
      1.00570031974951526655e-05 	 3 3 8 1
     -2.61112393291468866761e-04 	 3 3 8 2
     -1.14749553875624090392e-03 	 3 3 8 3
     -5.88683033384840032759e-04 	 3 3 8 4
     -8.88044556211125928058e-04 	 3 3 8 5
      5.90895890199677318753e-05 	 3 3 8 6
     -9.40261847977913651532e-04 	 3 3 8 7
      1.05898365021582646639e-01 	 3 3 8 8
     -1.40787637877536910523e-03 	 3 3 9 1
     -7.11127625286575538663e-04 	 3 3 9 2
      4.28605843572647099687e-04 	 3 3 9 3
     -1.33802801290797243779e-03 	 3 3 9 4
      2.44301119993595508562e-04 	 3 3 9 5
     -9.46213147421258145633e-04 	 3 3 9 6
      2.62928945108565053496e-03 	 3 3 9 7
      5.26468092653381157693e-04 	 3 3 9 8
      1.42784671712854582815e-01 	 3 3 9 9
     -3.53158907807664314976e-03 	 4 1 1 1
     -5.10510613360580888637e-05 	 4 1 2 1
      3.77855276656443835395e-03 	 4 1 2 2
     -7.68059688205279412349e-04 	 4 1 3 1
     -6.40370591423154722488e-05 	 4 1 3 2
     -5.00569936042327169601e-04 	 4 1 3 3
      4.38483978211386040552e-03 	 4 1 4 1
     -6.13290839528814933851e-05 	 4 1 4 2
      5.05524547341037328030e-04 	 4 1 4 3
     -1.58202313296935482070e-03 	 4 1 4 4
     -5.18113872414928755355e-05 	 4 1 5 1
      9.91765160542262076606e-06 	 4 1 5 2
      2.16060335084248313900e-05 	 4 1 5 3
     -8.17329527581139359850e-05 	 4 1 5 4
      2.73177039088284053653e-03 	 4 1 5 5
      7.54708799661875872310e-04 	 4 1 6 1
     -2.23067608019692174826e-05 	 4 1 6 2
     -8.14786824457455662995e-05 	 4 1 6 3
     -4.80812742957202057196e-04 	 4 1 6 4
      6.50895432737832188921e-05 	 4 1 6 5
     -1.39246679698572370029e-03 	 4 1 6 6
      3.19888077257935235509e-04 	 4 1 7 1
      5.79295682102694709653e-04 	 4 1 7 2
      2.01424305731148556081e-04 	 4 1 7 3
     -1.08042741956351859983e-03 	 4 1 7 4
     -9.77769997478821678965e-08 	 4 1 7 5
      9.99813551068774058507e-05 	 4 1 7 6
      3.34064262924371573049e-03 	 4 1 7 7
     -4.29767997531844297456e-05 	 4 1 8 1
     -1.91729084110269279960e-04 	 4 1 8 2
     -1.59954249680971183963e-05 	 4 1 8 3
      7.03295809679326672237e-05 	 4 1 8 4
     -1.99276374230712195485e-04 	 4 1 8 5
      1.71494802876194403225e-05 	 4 1 8 6
      7.61291182906621529455e-05 	 4 1 8 7
      3.17243432919778406767e-03 	 4 1 8 8
     -3.03025455867857954756e-04 	 4 1 9 1
     -1.49612242743357255005e-06 	 4 1 9 2
      9.75463193308521162505e-05 	 4 1 9 3
      1.09274716163540539654e-03 	 4 1 9 4
     -5.96501304908031806419e-04 	 4 1 9 5
      1.93774586457124689196e-04 	 4 1 9 6
     -1.10543174617102016202e-04 	 4 1 9 7
     -5.64372802423704017310e-05 	 4 1 9 8
      2.27650958090247750726e-03 	 4 1 9 9
      2.22406453544223361735e-04 	 4 2 1 1
      2.66672040394223011607e-05 	 4 2 2 1
      2.91727364106213367390e-03 	 4 2 2 2
     -1.34242737180810528660e-04 	 4 2 3 1
      2.72229910610360138757e-05 	 4 2 3 2
      1.40714633239754889973e-03 	 4 2 3 3
     -6.13290839528846375714e-05 	 4 2 4 1
      3.82447177405030396512e-04 	 4 2 4 2
      7.65317088719861919610e-05 	 4 2 4 3
     -2.19133884820113544484e-04 	 4 2 4 4
      1.47186139888310895801e-05 	 4 2 5 1
      8.05700226943454494467e-05 	 4 2 5 2
      1.13327265922292514190e-06 	 4 2 5 3
     -1.04315389655413681778e-04 	 4 2 5 4
     -1.28910758424115009027e-03 	 4 2 5 5
     -1.11882079072435282763e-04 	 4 2 6 1
     -2.02036523959980263121e-06 	 4 2 6 2
      1.26587572864107306093e-05 	 4 2 6 3
      6.99054389725914875715e-05 	 4 2 6 4
      1.03747794957278418758e-06 	 4 2 6 5
     -1.11773463491524061020e-03 	 4 2 6 6
      3.62307621085661456174e-05 	 4 2 7 1
      6.39506523851017440879e-04 	 4 2 7 2
      5.11603481369800642490e-05 	 4 2 7 3
     -4.99341592066285364267e-04 	 4 2 7 4
     -5.23150649730705331018e-05 	 4 2 7 5
      8.28503952209716938151e-06 	 4 2 7 6
      5.78816013155211781666e-03 	 4 2 7 7
      8.21526814503998069382e-06 	 4 2 8 1
      4.39645085411021201583e-04 	 4 2 8 2
      6.95995232920887540074e-06 	 4 2 8 3
      5.97712087424717136556e-05 	 4 2 8 4
      1.25414403199843981217e-05 	 4 2 8 5
      2.02902457997673325972e-07 	 4 2 8 6
      1.01272136441105743742e-04 	 4 2 8 7
     -9.28495088593013235406e-04 	 4 2 8 8
     -1.07971277383541808606e-06 	 4 2 9 1
     -3.56865627295875677293e-05 	 4 2 9 2
     -1.97970305635267159524e-05 	 4 2 9 3
     -5.94702308053912036094e-04 	 4 2 9 4
      2.11125901928082507913e-05 	 4 2 9 5
     -2.07453281994188092378e-05 	 4 2 9 6
      2.28879938390521004267e-05 	 4 2 9 7
     -1.95677159864878418916e-05 	 4 2 9 8
     -2.43639859683408756957e-03 	 4 2 9 9
     -4.85761505144372950776e-03 	 4 3 1 1
     -2.79051907781894138055e-05 	 4 3 2 1
      1.84090764031788847212e-03 	 4 3 2 2
      3.02405127095008537845e-05 	 4 3 3 1
     -3.13994448145076308172e-05 	 4 3 3 2
      5.02667055487341588732e-03 	 4 3 3 3
      5.05524547341026160747e-04 	 4 3 4 1
      7.65317088719921008629e-05 	 4 3 4 2
      3.45736278165099648971e-04 	 4 3 4 3
     -4.37047749949708280032e-03 	 4 3 4 4
      7.73475318484701139586e-06 	 4 3 5 1
     -6.60375394829443755705e-06 	 4 3 5 2
      7.71200306977548919558e-06 	 4 3 5 3
     -8.24527807172487054539e-05 	 4 3 5 4
     -6.60760623556316752276e-04 	 4 3 5 5
     -1.23494148779664810562e-04 	 4 3 6 1
     -4.70764806820754416614e-07 	 4 3 6 2
     -8.92967773086052115121e-05 	 4 3 6 3
     -5.79057857527798535173e-05 	 4 3 6 4
      1.04488377173090773878e-05 	 4 3 6 5
     -4.07065420547489658504e-03 	 4 3 6 6
      9.05481078600847564186e-05 	 4 3 7 1
      9.27610135940222075527e-06 	 4 3 7 2
      8.59679876792758480755e-05 	 4 3 7 3
     -2.80052254443908903159e-04 	 4 3 7 4
     -3.50379177057815756726e-05 	 4 3 7 5
      2.09756985711143509115e-06 	 4 3 7 6
      1.48864478219958820855e-03 	 4 3 7 7
     -1.15291127982788850899e-05 	 4 3 8 1
      1.93753591049992463695e-05 	 4 3 8 2
     -1.13391202807083781772e-05 	 4 3 8 3
      6.76968187686601409296e-05 	 4 3 8 4
     -1.90499045878899387067e-05 	 4 3 8 5
      5.82595017786188376402e-06 	 4 3 8 6
      2.66348821096619392480e-05 	 4 3 8 7
      8.53983451250934187671e-04 	 4 3 8 8
      4.59191871550492219239e-05 	 4 3 9 1
     -2.98215420542179256234e-06 	 4 3 9 2
     -1.76241567713161903681e-05 	 4 3 9 3
     -7.33694820590844446655e-05 	 4 3 9 4
     -1.36443430655619463545e-04 	 4 3 9 5
      3.09737723704324392814e-05 	 4 3 9 6
     -9.92031300849534753957e-05 	 4 3 9 7
     -1.22856638388414987157e-05 	 4 3 9 8
     -2.33554877435857097950e-03 	 4 3 9 9
      3.16393883877931103576e-01 	 4 4 1 1
     -9.73467672927896072923e-05 	 4 4 2 1
      1.96202998203870715432e-01 	 4 4 2 2
      2.52155686722766066155e-03 	 4 4 3 1
      4.85776145107317484234e-04 	 4 4 3 2
      2.15198843706889936245e-01 	 4 4 3 3
     -1.58202313296934397868e-03 	 4 4 4 1
     -2.19133884820211231100e-04 	 4 4 4 2
     -4.37047749949707325934e-03 	 4 4 4 3
      5.64162278386190707558e-01 	 4 4 4 4
     -9.38060593757414953311e-05 	 4 4 5 1
      6.64543268101634829366e-04 	 4 4 5 2
     -3.28325659026039548723e-04 	 4 4 5 3
     -1.24116319874079551050e-04 	 4 4 5 4
      2.01077385382063378305e-01 	 4 4 5 5
     -2.45937379515980729730e-03 	 4 4 6 1
      3.31591071103660127179e-04 	 4 4 6 2
      2.13889428923532852120e-03 	 4 4 6 3
      4.25539782072537585422e-03 	 4 4 6 4
     -4.90672136053442431956e-04 	 4 4 6 5
      2.19351993768854336420e-01 	 4 4 6 6
     -5.04574970496423323707e-03 	 4 4 7 1
      3.00895499516654237049e-03 	 4 4 7 2
     -1.09751707323092035327e-03 	 4 4 7 3
     -1.27591830362971288271e-02 	 4 4 7 4
      1.78076082879409015348e-03 	 4 4 7 5
      7.73361179547213980871e-04 	 4 4 7 6
      3.02725477395682285309e-01 	 4 4 7 7
      3.99568191554775832552e-04 	 4 4 8 1
     -3.88940320708257248825e-03 	 4 4 8 2
      2.09155747829224176884e-04 	 4 4 8 3
     -4.19244072980290080621e-03 	 4 4 8 4
     -3.85426013337405353257e-03 	 4 4 8 5
     -2.14528096166269652929e-04 	 4 4 8 6
     -9.75530501742165562055e-04 	 4 4 8 7
      1.73263262834511155841e-01 	 4 4 8 8
      4.96723634222573980773e-03 	 4 4 9 1
     -1.77334070591824506831e-03 	 4 4 9 2
      7.84699957398762946298e-04 	 4 4 9 3
      1.27018595252624197367e-02 	 4 4 9 4
     -2.92885000452690466219e-03 	 4 4 9 5
     -1.06189608623825297411e-03 	 4 4 9 6
      9.04004252767462955498e-03 	 4 4 9 7
      8.83821782425066814447e-04 	 4 4 9 8
      3.07680613524395074609e-01 	 4 4 9 9
      5.00590342529709107951e-04 	 5 1 1 1
     -1.69849208495326781964e-06 	 5 1 2 1
     -6.76385881429603238405e-05 	 5 1 2 2
     -4.72521579833518179229e-05 	 5 1 3 1
      6.48046905521405509240e-07 	 5 1 3 2
      2.85430476937392557050e-04 	 5 1 3 3
     -5.18113872414966499143e-05 	 5 1 4 1
      1.47186139888305661137e-05 	 5 1 4 2
      7.73475318484495818800e-06 	 5 1 4 3
     -9.38060593757537603682e-05 	 5 1 4 4
      2.34517464191798752848e-05 	 5 1 5 1
      4.72776992422783029442e-06 	 5 1 5 2
      6.33409994184058167777e-06 	 5 1 5 3
      2.50879424350139047383e-05 	 5 1 5 4
      1.32906234369717249702e-03 	 5 1 5 5
     -1.11565579159356344100e-04 	 5 1 6 1
      2.67654972132763124792e-07 	 5 1 6 2
      5.38744029422490347374e-06 	 5 1 6 3
      3.02860205042005554423e-05 	 5 1 6 4
     -1.26212116060519238913e-06 	 5 1 6 5
     -5.89738108180892436905e-04 	 5 1 6 6
      2.39657909387627863097e-05 	 5 1 7 1
     -3.04589062161296997777e-05 	 5 1 7 2
     -2.20804358005878576134e-06 	 5 1 7 3
      3.47523941029127071472e-06 	 5 1 7 4
     -1.91220546150410434681e-05 	 5 1 7 5
     -1.26638546535969377172e-06 	 5 1 7 6
     -8.48874402296257590415e-05 	 5 1 7 7
      2.57298368337189698333e-06 	 5 1 8 1
      3.72969683073726081105e-05 	 5 1 8 2
      1.04813161720029345253e-07 	 5 1 8 3
      3.34392973084261729152e-06 	 5 1 8 4
      4.91219082772829335822e-05 	 5 1 8 5
     -5.36174838497159890268e-07 	 5 1 8 6
     -2.87663057528614230678e-06 	 5 1 8 7
      8.98689062302599427599e-05 	 5 1 8 8
      7.35292576552910560433e-06 	 5 1 9 1
     -2.21140141376352064007e-06 	 5 1 9 2
     -1.96907344341015446088e-07 	 5 1 9 3
     -1.13249230561951962602e-04 	 5 1 9 4
     -1.05685922922619949041e-04 	 5 1 9 5
      8.33016781097987588035e-06 	 5 1 9 6
     -1.19867153291133177211e-05 	 5 1 9 7
     -4.44820283191383876540e-05 	 5 1 9 8
      1.13616067613358411644e-04 	 5 1 9 9
      7.37612109132302707151e-04 	 5 2 1 1
      4.10018946989170542149e-06 	 5 2 2 1
     -2.77801770866729393072e-03 	 5 2 2 2
      4.99569399020106602398e-06 	 5 2 3 1
      1.51566781191769341840e-05 	 5 2 3 2
      4.45788385909081296896e-04 	 5 2 3 3
      9.91765160543096234652e-06 	 5 2 4 1
      8.05700226943077056586e-05 	 5 2 4 2
     -6.60375394828842531719e-06 	 5 2 4 3
      6.64543268101698688874e-04 	 5 2 4 4
      4.72776992422412791340e-06 	 5 2 5 1
      3.88844297255728176248e-04 	 5 2 5 2
     -6.95461768472483284439e-06 	 5 2 5 3
      9.73976004929449088246e-05 	 5 2 5 4
     -1.91465224498828310955e-03 	 5 2 5 5
      6.01781191759386680082e-06 	 5 2 6 1
      7.53280398388709067364e-06 	 5 2 6 2
     -1.77991009993569124709e-06 	 5 2 6 3
     -1.37790101571178358553e-05 	 5 2 6 4
     -1.60247244116580139480e-05 	 5 2 6 5
      1.18139186395051893307e-03 	 5 2 6 6
      3.42636710949358932936e-06 	 5 2 7 1
      4.00790862872915957735e-04 	 5 2 7 2
      1.04382301947492187608e-06 	 5 2 7 3
      3.02312468754597205890e-05 	 5 2 7 4
     -4.27805511732577578533e-05 	 5 2 7 5
     -3.06002802778431063578e-06 	 5 2 7 6
      6.15406965992591563873e-04 	 5 2 7 7
      3.49391958335128771933e-05 	 5 2 8 1
      6.88943110545974088041e-04 	 5 2 8 2
      1.10155451396208821163e-05 	 5 2 8 3
      5.73352893089813049534e-05 	 5 2 8 4
      6.95165353238958458673e-04 	 5 2 8 5
     -1.19675184208704878076e-05 	 5 2 8 6
     -7.46247057137984704705e-05 	 5 2 8 7
     -6.77885997805546553635e-03 	 5 2 8 8
     -1.73329508164986307141e-05 	 5 2 9 1
      4.40946549031767887289e-05 	 5 2 9 2
     -1.05133458136078073945e-06 	 5 2 9 3
     -4.03914293556693177432e-05 	 5 2 9 4
     -3.86602793931949747109e-04 	 5 2 9 5
      7.35303845158059405870e-06 	 5 2 9 6
     -2.89471396287296252607e-05 	 5 2 9 7
      5.83823859373933557208e-05 	 5 2 9 8
      1.49306320016155745327e-03 	 5 2 9 9
     -2.11735461990409908409e-04 	 5 3 1 1
     -2.79240424628851560880e-07 	 5 3 2 1
      2.80416573336935172063e-05 	 5 3 2 2
     -1.38055671655240565449e-05 	 5 3 3 1
     -5.73657954380260296298e-06 	 5 3 3 2
      3.71249164842705169087e-04 	 5 3 3 3
      2.16060335084243672159e-05 	 5 3 4 1
      1.13327265922187926797e-06 	 5 3 4 2
      7.71200306977516224086e-06 	 5 3 4 3
     -3.28325659026042096598e-04 	 5 3 4 4
      6.33409994184057490151e-06 	 5 3 5 1
     -6.95461768472371137277e-06 	 5 3 5 2
      4.41730661931580058193e-06 	 5 3 5 3
      8.74369684310366615261e-07 	 5 3 5 4
      7.18180104693718767035e-04 	 5 3 5 5
     -4.57656703457717333155e-06 	 5 3 6 1
     -7.92879411420504236676e-07 	 5 3 6 2
     -7.51548037866632530026e-06 	 5 3 6 3
      1.34833976786401703383e-06 	 5 3 6 4
      1.90066941373878274565e-06 	 5 3 6 5
     -2.54252208272212577508e-04 	 5 3 6 6
      7.54520004558683061015e-06 	 5 3 7 1
     -4.97440728056997642342e-06 	 5 3 7 2
      7.70989575412996039881e-06 	 5 3 7 3
      1.87823807346864915539e-06 	 5 3 7 4
     -9.98352103847000977275e-06 	 5 3 7 5
      8.53933454178726075999e-07 	 5 3 7 6
     -1.68454569834266209248e-04 	 5 3 7 7
     -8.92198224511494740104e-07 	 5 3 8 1
      8.69646112529220433475e-06 	 5 3 8 2
     -2.11175031537561816146e-06 	 5 3 8 3
      1.82618639340227591927e-06 	 5 3 8 4
     -1.67174831802654745268e-05 	 5 3 8 5
      3.01421830628262418641e-07 	 5 3 8 6
     -3.62911469342735888004e-07 	 5 3 8 7
      2.43773614989700493664e-04 	 5 3 8 8
     -5.19091503886624476972e-06 	 5 3 9 1
     -1.57823186657555291600e-06 	 5 3 9 2
      2.66378667190815256817e-06 	 5 3 9 3
     -4.03049876427436764973e-05 	 5 3 9 4
     -9.03524695715519622586e-06 	 5 3 9 5
      4.47500186391766111298e-06 	 5 3 9 6
     -1.29670396334232011532e-05 	 5 3 9 7
     -1.77190543682452719004e-05 	 5 3 9 8
     -1.69218398232557503975e-04 	 5 3 9 9
      1.13710652930467141439e-03 	 5 4 1 1
      1.22703301683748800796e-05 	 5 4 2 1
     -2.96049060097070600855e-03 	 5 4 2 2
      1.12211736453155349258e-04 	 5 4 3 1
     -2.29943060114725996047e-06 	 5 4 3 2
     -3.84311732781949730309e-04 	 5 4 3 3
     -8.17329527581125807323e-05 	 5 4 4 1
     -1.04315389655427017464e-04 	 5 4 4 2
     -8.24527807172525814767e-05 	 5 4 4 3
     -1.24116319874103701653e-04 	 5 4 4 4
      2.50879424350148263101e-05 	 5 4 5 1
      9.73976004929606568612e-05 	 5 4 5 2
      8.74369684310574350091e-07 	 5 4 5 3
      4.05754262602890691022e-04 	 5 4 5 4
      2.44162020932585073843e-03 	 5 4 5 5
      1.49167222031343956867e-04 	 5 4 6 1
      8.13318805318725831526e-07 	 5 4 6 2
      7.72283291032456453967e-07 	 5 4 6 3
     -9.22129819090863650684e-05 	 5 4 6 4
     -2.71631268893829499935e-05 	 5 4 6 5
      3.15938210022181833331e-03 	 5 4 6 6
      6.13792067928671332189e-06 	 5 4 7 1
     -1.17462823872721544832e-05 	 5 4 7 2
     -3.13495805458230853433e-05 	 5 4 7 3
      5.84459390758834424623e-04 	 5 4 7 4
      3.71416040023453812601e-05 	 5 4 7 5
     -2.41420553613052484617e-05 	 5 4 7 6
     -3.30071045297748591821e-03 	 5 4 7 7
      9.95678479550505706787e-06 	 5 4 8 1
      5.46828878825318767968e-07 	 5 4 8 2
     -9.76456059351111932952e-07 	 5 4 8 3
      6.19405216449336084835e-05 	 5 4 8 4
      4.36273055486837552357e-04 	 5 4 8 5
     -7.50465272077268116628e-06 	 5 4 8 6
      3.46826203576253540772e-07 	 5 4 8 7
     -2.41208508754025543683e-03 	 5 4 8 8
     -6.05502243152768445463e-05 	 5 4 9 1
      5.26791276100100036269e-05 	 5 4 9 2
      6.72147287367270859060e-06 	 5 4 9 3
      4.95513194324209769841e-04 	 5 4 9 4
     -6.29220099521058165958e-04 	 5 4 9 5
      4.92947102536732775259e-05 	 5 4 9 6
      4.19973588822132178305e-05 	 5 4 9 7
     -1.04545407018805699539e-04 	 5 4 9 8
      6.13939882179787704830e-03 	 5 4 9 9
      1.44196306509954019770e-01 	 5 5 1 1
     -1.30913026343337096646e-04 	 5 5 2 1
      1.73385262548046620301e-01 	 5 5 2 2
      1.03696637670564807167e-03 	 5 5 3 1
     -4.71541856449626486545e-05 	 5 5 3 2
      1.08936564726320128660e-01 	 5 5 3 3
      2.73177039088285745008e-03 	 5 5 4 1
     -1.28910758424132442998e-03 	 5 5 4 2
     -6.60760623556297887159e-04 	 5 5 4 3
      2.01077385382064044439e-01 	 5 5 4 4
      1.32906234369711329958e-03 	 5 5 5 1
     -1.91465224498812351499e-03 	 5 5 5 2
      7.18180104693704672407e-04 	 5 5 5 3
      2.44162020932557535108e-03 	 5 5 5 4
      5.21934084526561314910e-01 	 5 5 5 5
      2.18655169534508338983e-04 	 5 5 6 1
      1.44102797738316153767e-05 	 5 5 6 2
      5.03227913701420159591e-04 	 5 5 6 3
     -6.20986428918560845469e-04 	 5 5 6 4
      3.20385565054129805001e-05 	 5 5 6 5
      1.45125491445518339795e-01 	 5 5 6 6
     -1.81423183379882937624e-03 	 5 5 7 1
      3.84372049215330174182e-03 	 5 5 7 2
     -7.15322287696816978267e-05 	 5 5 7 3
     -2.60476119513364636274e-03 	 5 5 7 4
     -1.76661561922781878628e-03 	 5 5 7 5
      2.36880324855530573214e-04 	 5 5 7 6
      1.54931809077043486367e-01 	 5 5 7 7
      1.57899089049548842906e-05 	 5 5 8 1
     -2.09917939052784406628e-03 	 5 5 8 2
     -1.46058592359007944576e-04 	 5 5 8 3
      9.30223112830962876180e-04 	 5 5 8 4
     -1.58056015344258775357e-02 	 5 5 8 5
     -1.54869993903585759665e-04 	 5 5 8 6
     -1.39507488667143576301e-03 	 5 5 8 7
      2.86091774271900300963e-01 	 5 5 8 8
      1.20191052635307813780e-03 	 5 5 9 1
     -1.28027667280284002983e-03 	 5 5 9 2
      8.44810132609768852686e-04 	 5 5 9 3
      1.31846203291892112401e-03 	 5 5 9 4
     -1.62361495820776691179e-02 	 5 5 9 5
      1.66920986360756464124e-03 	 5 5 9 6
     -7.15534767604772371438e-04 	 5 5 9 7
     -6.40743992259310262555e-03 	 5 5 9 8
      3.08417095799538021339e-01 	 5 5 9 9
      1.26016086013871846626e-03 	 6 1 1 1
      4.56617109179066580651e-05 	 6 1 2 1
     -2.11399553338100301692e-03 	 6 1 2 2
      1.37790846611739745478e-03 	 6 1 3 1
      9.03783589889702661759e-07 	 6 1 3 2
     -4.01038700520096359770e-03 	 6 1 3 3
      7.54708799661830552659e-04 	 6 1 4 1
     -1.11882079072407323900e-04 	 6 1 4 2
     -1.23494148779678688350e-04 	 6 1 4 3
     -2.45937379515983852232e-03 	 6 1 4 4
     -1.11565579159349527179e-04 	 6 1 5 1
      6.01781191759180427559e-06 	 6 1 5 2
     -4.57656703457540049159e-06 	 6 1 5 3
      1.49167222031355639145e-04 	 6 1 5 4
      2.18655169534484893111e-04 	 6 1 5 5
      5.32146180863948912304e-03 	 6 1 6 1
     -1.25431473347245225420e-05 	 6 1 6 2
      4.27810994245707125212e-04 	 6 1 6 3
      2.03756029279975205528e-05 	 6 1 6 4
      3.20695031645067334415e-06 	 6 1 6 5
      1.22157181809726695515e-02 	 6 1 6 6