&FCI NORB=8,NELEC=0,MS2=0
ORBSYM=1,1,1,1,
ISYM=1,
/
      6.70931324765347697481e-02 	 1 1 1 1
      2.52962727239280623162e-03 	 1 2 1 1
      9.99636133963782008705e-03 	 1 3 1 1
     -7.87112287165256710973e-05 	 1 4 1 1
      1.25905737973896793280e-02 	 1 5 1 1
      3.49318231495494109159e-03 	 1 6 1 1
     -7.89303114691730601724e-04 	 1 7 1 1
      1.75806668584599090632e-02 	 1 8 1 1
      2.52962727239280319586e-03 	 2 1 1 1
     -3.95134121711636920882e-02 	 2 2 1 1
     -4.08670046602611480163e-03 	 2 3 1 1
     -6.68691367633063435058e-04 	 2 4 1 1
     -1.22147351140832818861e-02 	 2 5 1 1
     -2.92463664695505548910e-03 	 2 6 1 1
      7.24519410675714993497e-03 	 2 7 1 1
      1.67244852666029240711e-03 	 2 8 1 1
      9.99636133963783049539e-03 	 3 1 1 1
     -4.08670046602611653636e-03 	 3 2 1 1
      7.01742331189417478665e-02 	 3 3 1 1
     -1.14724886677831094950e-02 	 3 4 1 1
     -9.68454829365703560862e-03 	 3 5 1 1
     -1.37410741820559647447e-02 	 3 6 1 1
      4.20258646399763059059e-03 	 3 7 1 1
     -4.50929723890837030192e-03 	 3 8 1 1
     -7.87112287165327184114e-05 	 4 1 1 1
     -6.68691367633064844521e-04 	 4 2 1 1
     -1.14724886677831094950e-02 	 4 3 1 1
      3.75179687333916239700e-02 	 4 4 1 1
     -5.04095821016089812999e-03 	 4 5 1 1
     -1.60835943719620476366e-02 	 4 6 1 1
      4.12746950460356979568e-03 	 4 7 1 1
      2.46199287178009741661e-03 	 4 8 1 1
      1.25905737973896949405e-02 	 5 1 1 1
     -1.22147351140832957639e-02 	 5 2 1 1
     -9.68454829365704254751e-03 	 5 3 1 1
     -5.04095821016089899735e-03 	 5 4 1 1
      1.07832848420500213016e-01 	 5 5 1 1
     -6.87849376764373618420e-03 	 5 6 1 1
      1.21453835034390830033e-02 	 5 7 1 1
     -4.62330196084492339031e-03 	 5 8 1 1
      3.49318231495494499472e-03 	 6 1 1 1
     -2.92463664695505375438e-03 	 6 2 1 1
     -1.37410741820559647447e-02 	 6 3 1 1
     -1.60835943719620545755e-02 	 6 4 1 1
     -6.87849376764373878629e-03 	 6 5 1 1
     -7.26370151867338376822e-03 	 6 6 1 1
      1.27058455291430673698e-03 	 6 7 1 1
      3.37801017083034192667e-03 	 6 8 1 1
     -7.89303114691735263793e-04 	 7 1 1 1
      7.24519410675714993497e-03 	 7 2 1 1
      4.20258646399762712115e-03 	 7 3 1 1
      4.12746950460357413248e-03 	 7 4 1 1
      1.21453835034390882075e-02 	 7 5 1 1
      1.27058455291430435173e-03 	 7 6 1 1
     -4.16127528455510504318e-03 	 7 7 1 1
     -6.77752625370281816530e-04 	 7 8 1 1
      1.75806668584598951854e-02 	 8 1 1 1
      1.67244852666029175658e-03 	 8 2 1 1
     -4.50929723890836769984e-03 	 8 3 1 1
      2.46199287178008874299e-03 	 8 4 1 1
     -4.62330196084492078823e-03 	 8 5 1 1
      3.37801017083034062563e-03 	 8 6 1 1
     -6.77752625370279539706e-04 	 8 7 1 1
      3.24514872693053776920e-02 	 8 8 1 1
      0.00000000000000000000e+00 	 0 0 0 0
