14
Step 0  E=-436.5536120109  phi=37.721  theta=72.150
C  -1.8805787746  1.1909311758 -0.1057479120
C  -0.4794717809  1.2077972862 -0.0932827071
C   0.1966448516  0.0146176428  0.0023542865
C  -2.5642975862 -0.0218794825 -0.0468133884
H  -2.4314261528  2.0997895409 -0.2139049756
H   0.0527926256  2.1209215767 -0.1415760011
H  -3.6675179122 -0.0423396920 -0.0407270174
N   1.6491332451  0.0162747874  0.0161305986
O   2.2131214950 -1.0523459000  0.1056167776
O   2.2118995703  1.0849855577 -0.0346723347
C  -1.8804369875 -1.1895415082  0.0577053187
H  -2.4223840739 -2.1432014347  0.0990050868
C  -0.4821072445 -1.2378168667  0.0660093798
H   0.0889732227 -2.1174224458  0.1622656342
14
Step 1  E=-436.5394634918  phi=38.254  theta=71.663
C  -1.8750765495  1.1920550902 -0.0918326901
C  -0.4608457088  1.2076300816 -0.0909622902
C   0.2157811547  0.0275377901  0.0014878239
C  -2.5585244655 -0.0244005824 -0.0474797826
H  -2.4299643306  2.0793459658 -0.2311075588
H   0.0450427337  2.1122986971 -0.1322322762
H  -3.6771593171 -0.0570762131 -0.0162169954
N   1.6452870267  0.0203498889  0.0027859367
O   2.2047066015 -1.0475906131  0.0957889495
O   2.2154949557  1.0800990773 -0.0331816956
C  -1.8892374056 -1.1624250449  0.0629495757
H  -2.4359742251 -2.1266072656  0.0884345317
C  -0.4806224634 -1.2596944555  0.0538683698
H   0.0916434488 -2.1078083247  0.1699574178
14
Step 2  E=-436.5195512617  phi=38.771  theta=71.195
C  -1.8693074466  1.1927885182 -0.0780368610
C  -0.4429017933  1.2071589759 -0.0885978558
C   0.2341274455  0.0395732468  0.0005458794
C  -2.5533326617 -0.0260017868 -0.0480371518
H  -2.4297275132  2.0624358301 -0.2480145832
H   0.0402276560  2.1083702947 -0.1233287062
H  -3.6820049257 -0.0707549112  0.0075940529
N   1.6418037882  0.0243886476 -0.0104214038
O   2.1963176912 -1.0428713591  0.0859393932
O   2.2190323323  1.0752664413 -0.0317597582
C  -1.8973084732 -1.1366725271  0.0681793844
H  -2.4479262989 -2.1068596780  0.0782932202
C  -0.4793863692 -1.2800030939  0.0417585551
H   0.0971789452 -2.1050022811  0.1778880744
14
Step 3  E=-436.4981264400  phi=39.256  theta=70.753
C  -1.8631770790  1.1930268635 -0.0644166327
C  -0.4259316891  1.2063437547 -0.0861652938
C   0.2514064206  0.0503713673 -0.0005007648
C  -2.5490322964 -0.0261653701 -0.0484538928
H  -2.4310303167  2.0502504287 -0.2645461786
H   0.0396228842  2.1112229349 -0.1150166466
H  -3.6810133812 -0.0829466110  0.0302828760
N   1.6388004458  0.0283641058 -0.0234392699
O   2.1879870627 -1.0382671461  0.0760566698
O   2.2225623219  1.0705945124 -0.0304257867
C  -1.9042450846 -1.1130238841  0.0733833070
H  -2.4580618423 -2.0834227564  0.0688680561
C  -0.4785342757 -1.2981952085  0.0296971305
H   0.1065959953 -2.1112694631  0.1863147442
14
Step 4  E=-436.4783375566  phi=39.695  theta=70.339
C  -1.8566458700  1.1927490531 -0.0510356346
C  -0.4101447167  1.2052478212 -0.0836457501
C   0.2673639320  0.0596524341 -0.0016824441
C  -2.5458881076 -0.0243879659 -0.0487054213
H  -2.4337213815  2.0432060200 -0.2805376770
H   0.0437430576  2.1216485022 -0.1073777162
H  -3.6738083556 -0.0932243660  0.0514395665
N   1.6363981138  0.0322468252 -0.0362196161
O   2.1797511464 -1.0338584067  0.0661289636
O   2.2261374499  1.0661883632 -0.0291971772
C  -1.9096467043 -1.0921655978  0.0785542992
H  -2.4664086532 -2.0562796819  0.0604544778
C  -0.4781179433 -1.3139512366  0.0177202729
H   0.1198320535 -2.1270430458  0.1953203111
14
Step 5  E=-436.4613175394  phi=40.075  theta=69.960
C  -1.8497328130  1.1920196509 -0.0379704756
C  -0.3956576357  1.2040549543 -0.0810244692
C   0.2817674491  0.0672036984 -0.0030288187
C  -2.5440870966 -0.0202337869 -0.0487711501
H  -2.4371538099  2.0409390066 -0.2956593488
H   0.0522655945  2.1388490390 -0.1004365629
H  -3.6606812769 -0.1011763336  0.0707037594
N   1.6347153002  0.0360061538 -0.0487191247
O   2.1716510295 -1.0297263236  0.0561442518
O   2.2298106756  1.0621487381 -0.0280893136
C  -1.9131509288 -1.0746691925  0.0836858563
H  -2.4731986336 -2.0259525689  0.0533323038
C  -0.4780833315 -1.3271782673  0.0058939667
H   0.1355975821 -2.1508499263  0.2046495695
14
Step 6  E=-436.4469458352  phi=40.387  theta=69.623
C  -1.8425052146  1.1909725346 -0.0253109171
C  -0.3825077285  1.2030399009 -0.0782884796
C   0.2944071558  0.0728750598 -0.0045679018
C  -2.5437017166 -0.0133922324 -0.0486294356
H  -2.4403025157  2.0425067674 -0.3093990098
H   0.0642223766  2.1606870811 -0.0941872743
H  -3.6425958131 -0.1064237293  0.0877989927
N   1.6338598498  0.0396119283 -0.0608995310
O   2.1637326028 -1.0259520722  0.0460905102
O   2.2336337595  1.0585696271 -0.0271155032
C  -1.9144665532 -1.0609280537  0.0887657442
H  -2.4788696183 -1.9935028069  0.0477445526
C  -0.4782981245 -1.3379507055 -0.0056882905
H   0.1517514858 -2.1799165153  0.2137102904
14
Step 7  E=-436.4350229957  phi=40.623  theta=69.333
C  -1.8350597487  1.1897850132 -0.0131545682
C  -0.3706783663  1.2025075353 -0.0754245980
C   0.3050995382  0.0765762800 -0.0063259233
C  -2.5446579470 -0.0037255407 -0.0482526437
H  -2.4419709849  2.0466903912 -0.3211126045
H   0.0783338335  2.1843151945 -0.0886159176
H  -3.6211910027 -0.1086463495  0.1025667244
N   1.6339202713  0.0430363647 -0.0727275698
O   2.1560462403 -1.0226159200  0.0359559299
O   2.2376555231  1.0555360168 -0.0262869819
C  -1.9134000621 -1.0511078769  0.0937693648
H  -2.4840648913 -1.9604977036  0.0438795191
C  -0.4786031342 -1.3464301007 -0.0169187845
H   0.1659163550 -2.2110244752  0.2217160185
14
Step 8  E=-436.4257553403  phi=40.778  theta=69.099
C  -1.8275023617  1.1886527394 -0.0015987684
C  -0.3601228889  1.2027307214 -0.0724185634
C   0.3136924007  0.0782749731 -0.0083277774
C  -2.5467219184  0.0087091376 -0.0476048570
H  -2.4410014636  2.0522781926 -0.3301112849
H   0.0933145466  2.2068365554 -0.0837099573
H  -3.5987468690 -0.1076142376  0.1149959905
N   1.6349572156  0.0462558633 -0.0841745514
O   2.1486461164 -1.0197961312  0.0257291447
O   2.2419201078  1.0531218217 -0.0256129849
C  -1.9098697976 -1.0451295189  0.0986555124
H  -2.4896084926 -1.9289075385  0.0418587477
C  -0.4788554479 -1.3528018095 -0.0276906530
H   0.1759822628 -2.2411756486  0.2278583159
14
Step 9  E=-436.4197037954  phi=40.849  theta=68.924
C  -1.8199320646  1.1877716603  0.0092672822
C  -0.3507796591  1.2039081487 -0.0692552432
C   0.3200709396  0.0779942650 -0.0105977693
C  -2.5495163640  0.0236705462 -0.0466432887
H  -2.4364308272  2.0582619162 -0.3357474630
H   0.1080633213  2.2257614578 -0.0794570951
H  -3.5780430525 -0.1032160381  0.1252351399
N   1.6369960760  0.0492524293 -0.0952156431
O   2.1415894152 -1.0175675202  0.0153994482
O   2.2464653355  1.0513879961 -0.0251008787
C  -1.9039063853 -1.0426951209  0.1033663011
H  -2.4964203106 -1.9008880267  0.0417367814
C  -0.4789499092 -1.3572406536 -0.0379081886
H   0.1803601124 -2.2679249646  0.2314270022
14
Step 10  E=-436.4176158409  phi=40.839  theta=68.813
C  -1.8124296149  1.1873275711  0.0193685221
C  -0.3425795247  1.2061450333 -0.0659194178
C   0.3241638070  0.0758094951 -0.0131603391
C  -2.5525720277  0.0407714892 -0.0453216023
H  -2.4275789621  2.0639393886 -0.3374792162
H   0.1217447936  2.2392270599 -0.0758401039
H  -3.5620295761 -0.0954645199  0.1335633589
N   1.6400218587  0.0520145270 -0.1058289787
O   2.1349352183 -1.0159997545  0.0049569856
O   2.2513212451  1.0503808076 -0.0247563543
C  -1.8956449801 -1.0433550974  0.1078309867
H  -2.5053386997 -1.8784315453  0.0435187775
C  -0.4788225896 -1.3598986632 -0.0474916064
H   0.1780366902 -2.2894653640  0.2318655027
14
Step 11  E=-436.4201005811  phi=40.751  theta=68.768
C  -1.8050499928  1.1874910831  0.0286479924
C  -0.3354497768  1.2094498220 -0.0623967580
C   0.3259480613  0.0718438146 -0.0160404620
C  -2.5554082381  0.0595290489 -0.0435916496
H  -2.4140850525  2.0689507879 -0.3349105532
H   0.1338083400  2.2460594813 -0.0728322772
H  -3.5532824212 -0.0844575513  0.1403046383
N   1.6439773604  0.0545371376 -0.1159947537
O   2.1287431776 -1.0151553604 -0.0056070954
O   2.2565088650  1.0501303181 -0.0245836804
C  -1.8853166602 -1.0465969715  0.1119719293
H  -2.5168598953 -1.8629505646  0.0471942005
C  -0.4784447250 -1.3609036394 -0.0563784905
H   0.1685354767 -2.3045968871  0.2287845898
14
Step 12  E=-436.4270502074  phi=40.591  theta=68.789
C  -1.7978173982  1.1884151776  0.0370693060
C  -0.3293179095  1.2137388668 -0.0586748015
C   0.3254519813  0.0662628414 -0.0192635140
C  -2.5576225613  0.0794110084 -0.0414018238
H  -2.3959137933  2.0732805051 -0.3278138409
H   0.1439858159  2.2457685369 -0.0703953388
H  -3.5533599604 -0.0702937187  0.1456984433
N   1.6487652571  0.0568209232 -0.1256944769
O   2.1230719759 -1.0150874393 -0.0163005547
O   2.2620392615  1.0506491449 -0.0245860092
C  -1.8732410161 -1.0519264956  0.1157110533
H  -2.5308795926 -1.8549493800  0.0527706316
C  -0.4778139396 -1.3603604591 -0.0645242426
H   0.1518589596 -2.3126748680  0.2219606039
14
Step 13  E=-436.4371917954  phi=40.368  theta=68.874
C  -1.7907223537  1.1902329003  0.0446181440
C  -0.3241167649  1.2188435861 -0.0547438333
C   0.3227550800  0.0592685660 -0.0228545101
C  -2.5589588172  0.0998715575 -0.0386946927
H  -2.3733473697  2.0772467825 -0.3161409603
H   0.1522923621  2.2385332948 -0.0684801709
H  -3.5623317168 -0.0529834675  0.1497869405
N   1.6542540872  0.0588705736 -0.1349105166
O   2.1179775970 -1.0158371724 -0.0271300346
O   2.2679128916  1.0519315974 -0.0247657171
C  -1.8598144558 -1.0589162877  0.1189763816
H  -2.5465709967 -1.8539475908  0.0602851860
C  -0.4769467025 -1.3583509044 -0.0719029313
H   0.1284492879 -2.3135869060  0.2113347514
14
Step 14  E=-436.4482815440  phi=40.092  theta=69.018
C  -1.7837214103  1.1930537224  0.0513028770
C  -0.3197911419  1.2245178025 -0.0505975993
C   0.3179852935  0.0510926269 -0.0268367827
C  -2.5593281812  0.1203789412 -0.0354088440
H  -2.3469687194  2.0814872322 -0.3000255837
H   0.1590385983  2.2251993198 -0.0670303608
H  -3.5787396507 -0.0324181014  0.1523889743
N   1.6602874417  0.0606925646 -0.1436260084
O   2.1135115583 -1.0174312257 -0.0381011021
O   2.2741192949  1.0539532978 -0.0251247554
C  -1.8454886334 -1.0672155459  0.1217084436
H  -2.5624822872 -1.8586917081  0.0697843297
C  -0.4758736678 -1.3549304010 -0.0785089950
H   0.0991768474 -2.3077774928  0.1970200799
14
Step 15  E=-436.4579008937  phi=39.774  theta=69.219
C  -1.7767407210  1.1969590285  0.0571538732
C  -0.3163046621  1.2304460760 -0.0462337874
C   0.3113135689  0.0419890747 -0.0312302905
C  -2.5587816630  0.1404389530 -0.0314863912
H  -2.3176315738  2.0869338632 -0.2797732898
H   0.1648486419  2.2072745213 -0.0659884868
H  -3.6000119343 -0.0084222916  0.1531769024
N   1.6666951113  0.0622927132 -0.1518251028
O   2.1097191298 -1.0198793511 -0.0492183221
O   2.2806371576  1.0566713605 -0.0256649883
C  -1.8307411067 -1.0765326895  0.1238655762
H  -2.5768096922 -1.8675300349  0.0812856539
C  -0.4746382073 -1.3501214765 -0.0843594703
H   0.0653468780 -2.2963176166  0.1793142785
14
Step 16  E=-436.4643332559  phi=39.424  theta=69.470
C  -1.7696844508  1.2019983281  0.0622208130
C  -0.3136445553  1.2362564631 -0.0416542160
C   0.3029466458  0.0322267945 -0.0360498119
C  -2.5574564529  0.1596156434 -0.0268826275
H  -2.2864049852  2.0947570644 -0.2558318136
H   0.1706624352  2.1868774401 -0.0653043713
H  -3.6230920339  0.0191461568  0.1518038491
N   1.6733046850  0.0636739297 -0.1594934521
O   2.1066377104 -1.0231724336 -0.0604853416
O   2.2874347874  1.0600251871 -0.0263884918
C  -1.8160461782 -1.0866107130  0.1254271356
H  -2.5877177278 -1.8787758230  0.0947441265
C  -0.4732963953 -1.3439063984 -0.0894955809
H   0.0286968923 -2.2809897284  0.1587066656
14
Step 17  E=-436.4671693405  phi=39.056  theta=69.767
C  -1.7624485225  1.2081891827  0.0665673688
C  -0.3118204961  1.2415438352 -0.0368648771
C   0.2931195186  0.0220819394 -0.0413034129
C  -2.5555217939  0.1775465566 -0.0215728788
H  -2.2544782698  2.1062486874 -0.2287336693
H   0.1776824089  2.1665632283 -0.0649428353
H  -3.6450040210  0.0503073860  0.1480136556
N   1.6799522129  0.0648344909 -0.1666188378
O   2.1042956007 -1.0272812171 -0.0719049534
O   2.2944710253  1.0639378982 -0.0272977845
C  -1.8018529019 -1.0972071038  0.1263941459
H  -2.5935962385 -1.8909550161  0.1100356563
C  -0.4719144850 -1.3362252955 -0.0939816183
H  -0.0086605472 -2.2643138486  0.1358558156
14
Step 18  E=-436.4675169637  phi=38.679  theta=70.106
C  -1.7549394037  1.2155247019  0.0702633614
C  -0.3108529871  1.2459098495 -0.0318762490
C   0.2820880855  0.0118310074 -0.0469914399
C  -2.5531392574  0.1939515593 -0.0155546397
H  -2.2230222672  2.1226201757 -0.1990119533
H   0.1872151170  2.1489544925 -0.0648854502
H  -3.6632161637  0.0849133649  0.1417004085
N   1.6864908805  0.0657670565 -0.1731918348
O   2.1027111820 -1.0321559982 -0.0834791030
O   2.3016965660  1.0683183426 -0.0283959724
C  -1.7885712719 -1.1080823192  0.1267879713
H  -2.5932166833 -1.9029304292  0.1269576278
C  -0.4705593268 -1.3269900505 -0.0978983893
H  -0.0444086332 -2.2493842026  0.1115074813
14
Step 19  E=-436.4675486917  phi=38.304  theta=70.486
C  -1.7470947727  1.2239885953  0.0733761954
C  -0.3107495033  1.2490185357 -0.0267043875
C   0.2701228604  0.0017454248 -0.0531061635
C  -2.5504383788  0.2086349713 -0.0088457510
H  -2.1930263645  2.1447252144 -0.1671092191
H   0.2003850925  2.1361814213 -0.0651190237
H  -3.6758115656  0.1226429349  0.1329216118
N   1.6927970940  0.0664584474 -0.1792064290
O   2.1018926774 -1.0377273353 -0.0952088346
O   2.3090556013  1.0730636124 -0.0296867942
C  -1.7765640126 -1.1189946353  0.1266477513
H  -2.5858071981 -1.9139440006  0.1452403525
C  -0.4692788151 -1.3161265921 -0.1013298459
H  -0.0763427917 -2.2393705968  0.0863371776
14
Step 20  E=-436.4692130273  phi=37.940  theta=70.904
C  -1.7389008144  1.2335732378  0.0759648348
C  -0.3114740129  1.2506529902 -0.0213729381
C   0.2575038269 -0.0079115602 -0.0596320688
C  -2.5475035356  0.2214824796 -0.0014806430
H  -2.1651591412  2.1727758585 -0.1333179972
H   0.2177831380  2.1292962084 -0.0656085654
H  -3.6815378731  0.1630220423  0.1218833895
N   1.6987738559  0.0668901675 -0.1846605346
O   2.1018383726 -1.0439078342 -0.1070941620
O   2.3164876515  1.0780619174 -0.0311745698
C  -1.7661397118 -1.1296986666  0.1260270982
H  -2.5710843363 -1.9236235104  0.1645649996
C  -0.4680777835 -1.3036461995 -0.1043463129
H  -0.1027722287 -2.2366766532  0.0607600286
14
Step 21  E=-436.4727994127  phi=37.596  theta=71.362
C  -1.7304004152  1.2442918791  0.0780792910
C  -0.3129240691  1.2507480774 -0.0159151719
C   0.2445163167 -0.0168855457 -0.0665466589
C  -2.5443674851  0.2324537572  0.0064938329
H  -2.1397077408  2.2061678316 -0.0977886026
H   0.2392085187  2.1279524243 -0.0662652860
H  -3.6798048571  0.2054556896  0.1089132242
N   1.7043517652  0.0670395186 -0.1895564071
O   2.1025372687 -1.0505948606 -0.1191338890
O   2.3239293784  1.0831956751 -0.0328640606
C  -1.7575445937 -1.1399450607  0.1249898897
H  -2.5492710295 -1.9319850864  0.1845875079
C  -0.4669049515 -1.2897186881 -0.1069937183
H  -0.1228221413 -2.2420679666  0.0348213679
14
Step 22  E=-436.4767156162  phi=37.281  theta=71.862
C  -1.7216893544  1.2561772131  0.0797658148
C  -0.3149291356  1.2493822882 -0.0103744030
C   0.2314481090 -0.0249302927 -0.0738216263
C  -2.5410083612  0.2415717911  0.0150221451
H  -2.1166193657  2.2435088601 -0.0606044534
H   0.2636589424  2.1305471796 -0.0669294379
H  -3.6706703913  0.2492653751  0.0944281313
N   1.7094881571  0.0668811645 -0.1939009298
O   2.1039700060 -1.0576739967 -0.1313253986
O   2.3313162328  1.0883446066 -0.0347602453
C  -1.7509518202 -1.1494799915  0.1236048180
H  -2.5211107207 -1.9394433971  0.2049703217
C  -0.4656659000 -1.2747016476 -0.1092969146
H  -0.1364517010 -2.2543062517  0.0082665656
14
Step 23  E=-436.4787604379  phi=37.003  theta=72.404
C  -1.7129025210  1.2692660734  0.0810745851
C  -0.3172714254  1.2467359550 -0.0048018548
C   0.2185867615 -0.0318074832 -0.0814243582
C  -2.5373496518  0.2489098385  0.0240432866
H  -2.0956167661  2.2828474156 -0.0218833937
H   0.2895761770  2.1347371705 -0.0673800803
H  -3.6548261353  0.2937312477  0.0789002866
N   1.7141649274  0.0663889824 -0.1977057690
O   2.1061099276 -1.0650229313 -0.1436644500
O   2.3385839533  1.0933886330 -0.0368680749
C  -1.7464510024 -1.1580446108  0.1219387260
H  -2.4878639346 -1.9468220820  0.2254227415
C  -0.4642593174 -1.2591028970 -0.1112738851
H  -0.1441955640 -2.2705573215 -0.0192476819
14
Step 24  E=-436.4776334433  phi=36.768  theta=72.990
C  -1.7041954657  1.2835777913  0.0820657006
C  -0.3197173191  1.2430407771  0.0007472831
C   0.2062166997 -0.0372890090 -0.0893196208
C  -2.5332638031  0.2545768028  0.0334937062
H  -2.0763317887  2.3220026506  0.0181448335
H   0.3152048064  2.1380402830 -0.0673653307
H  -3.6335686303  0.3381394020  0.0628194072
N   1.7183854362  0.0655380506 -0.2009874010
O   2.1089242158 -1.0725154651 -0.1561450113
O   2.3456699455  1.0982104589 -0.0391922287
C  -1.7440435689 -1.1653759199  0.1200496652
H  -2.4512495442 -1.9553329134  0.2457452631
C  -0.4626163972 -1.2435009563 -0.1129492322
H  -0.1468242096 -2.2872746105 -0.0479473031
14
Step 25  E=-436.4735631508  phi=36.584  theta=73.617
C  -1.6957264260  1.2990956289  0.0828112213
C  -0.3220459029  1.2385414025  0.0062181733
C   0.1946149247 -0.0411634502 -0.0974713859
C  -2.5285820000  0.2587025427  0.0433102117
H  -2.0584122454  2.3588762092  0.0591095351
H   0.3389044176  2.1382855242 -0.0666353367
H  -3.6087207803  0.3818314425  0.0466521485
N   1.7221709132  0.0643064727 -0.2037670149
O   2.1123750926 -1.0800253351 -0.1687591627
O   2.3525142173  1.1026978333 -0.0417367947
C  -1.7436509067 -1.1712135928  0.1179818032
H  -2.4132793739 -1.9664664458  0.2658621570
C  -0.4607249605 -1.2284671774 -0.1143591021
H  -0.1451010029 -2.3010335966 -0.0778439005
14
Step 26  E=-436.4680504339  phi=36.456  theta=74.285
C  -1.6876412678  1.3157560398  0.0833935747
C  -0.3240678891  1.2334745749  0.0115598344
C   0.1840451831 -0.0432468158 -0.1058446283
C  -2.5231129686  0.2614253274  0.0534326644
H  -2.0415855469  2.3916763135  0.1005149887
H   0.3593457517  2.1338466209 -0.0649666856
H  -3.5824587660  0.4242439081  0.0308038227
N   1.7255566717  0.0626771011 -0.2060703071
O   2.1164209542 -1.0874297206 -0.1814970800
O   2.3590605522  1.1067452094 -0.0445050778
C  -1.7451393885 -1.1753190137  0.1157649517
H  -2.3759569346 -1.9817289996  0.2858123397
C  -0.4586331726 -1.2145135664 -0.1155487731
H  -0.1396772629 -2.3090303829 -0.1087430538
14
Step 27  E=-436.4631126965  phi=36.390  theta=74.992
C  -1.6800621427  1.3334456802  0.0839018300
C  -0.3256368970  1.2280614261  0.0167275861
C   0.1747500198 -0.0433975703 -0.1144067443
C  -2.5166723183  0.2628843112  0.0638056327
H  -2.0256850942  2.4190450749  0.1417838796
H   0.3755994143  2.1237195849 -0.0621762475
H  -3.5570168170  0.4649148606  0.0155945335
N   1.7285881928  0.0606387737 -0.2079272225
O   2.1210173837 -1.0946121605 -0.1943470816
O   2.3652566185  1.1102553651 -0.0474993559
C  -1.7483574923 -1.1775085673  0.1134207166
H  -2.3408905678 -2.0022156740  0.3056708234
C  -0.4564374066 -1.2020636530 -0.1165677265
H  -0.1310784336 -2.3092624507 -0.1403025678
14
Step 28  E=-436.4603372698  phi=36.388  theta=75.732
C  -1.6730797308  1.3520033055  0.0844271470
C  -0.3266551351  1.2225059377  0.0216847403
C   0.1669413642 -0.0415346504 -0.1231284659
C  -2.5091189165  0.2632191310  0.0743778541
H  -2.0106549974  2.4401152436  0.1823103648
H   0.3871701616  2.1075211234 -0.0581264370
H  -3.5343006179  0.5034372872  0.0012662539
N   1.7313174665  0.0581873781 -0.2093716190
O   2.1261181598 -1.1014649466 -0.2072957614
O   2.3710546847  1.1131402834 -0.0507206494
C  -1.7531694230 -1.1776920837  0.1109741965
H  -2.3089742815 -2.0281413552  0.3254142045
C  -0.4542625063 -1.1914353654 -0.1174655044
H  -0.1197243744 -2.3005342659 -0.1720966392
14
Step 29  E=-436.4601622302  phi=36.452  theta=76.504
C  -1.6667489051  1.3712233865  0.0850580684
C  -0.3270770846  1.2169947415  0.0264038529
C   0.1607913462 -0.0376555033 -0.1319841319
C  -2.5003880547  0.2625761036  0.0850990101
H  -1.9965470099  2.4545294853  0.2215126727
H   0.3940132371  2.0854701448 -0.0527269287
H  -3.5155217593  0.5393645435 -0.0119733975
N   1.7337997051  0.0553266017 -0.2104408911
O   2.1316761149 -1.1078909630 -0.2203281796
O   2.3764122815  1.1153216368 -0.0541685584
C  -1.7594671082 -1.1758964671  0.1084654152
H  -2.2803167788 -2.0585642707  0.3447978827
C  -0.4522417900 -1.1828272868 -0.1182892727
H  -0.1059482212 -2.2824147563 -0.2036695010
14
Step 30  E=-436.4617656907  phi=36.581  theta=77.300
C  -1.6610874654  1.3908595623  0.0858758043
C  -0.3269130512  1.2116956080  0.0308677787
C   0.1564247749 -0.0318508326 -0.1409514149
C  -2.4905085765  0.2611164674  0.0959151405
H  -1.9835173934  2.4624460589  0.2588832825
H   0.3965541004  2.0583826628 -0.0459353603
H  -3.5010035289  0.5721115832 -0.0238889069
N   1.7360904876  0.0520683268 -0.2111755505
O   2.1376438416 -1.1138049914 -0.2334281085
O   2.3812923607  1.1167311556 -0.0578411362
C  -1.7671558715 -1.1722586462  0.1059530655
H  -2.2544706450 -2.0914809321  0.3633183768
C  -0.4505017377 -1.1763052237 -0.1190823348
H  -0.0899968759 -2.2552180166 -0.2345811384
14
Step 31  E=-436.4635325602  phi=36.771  theta=78.117
C  -1.6560774422  1.4106275159  0.0869494675
C  -0.3262322462  1.2067539100  0.0350705277
C   0.1539149091 -0.0243120098 -0.1500107149
C  -2.4795970625  0.2590205617  0.1067654725
H  -1.9718253080  2.4645390212  0.2940378560
H   0.3957172278  2.0276776597 -0.0377565842
H  -3.4902427581  0.6009131726 -0.0341682449
N   1.7382435291  0.0484327119 -0.2116188000
O   2.1439743904 -1.1191344973 -0.2465783000
O   2.3856633818  1.1173107849 -0.0617347716
C  -1.7761268423 -1.1669915257  0.1035085123
H  -2.2308095288 -2.1242519684  0.3802841487
C  -0.4491539571 -1.1717912092 -0.1198824916
H  -0.0720055778 -2.2200277554 -0.2644555635
14
Step 32  E=-436.4637546603  phi=37.014  theta=78.948
C  -1.6516687214  1.4302087737  0.0883314677
C  -0.3251629556  1.2022891009  0.0390175778
C   0.1532837132 -0.0153278076 -0.1591444137
C  -2.4678334838  0.2564848324  0.1175825999
H  -1.9618297367  2.4619844239  0.3267616567
H   0.3929438734  1.9953644916 -0.0282374425
H  -3.4821783789  0.6248700735 -0.0424129638
N   1.7403090805  0.0444480082 -0.2118160910
O   2.1506218679 -1.1238200316 -0.2597607758
O   2.3894994988  1.1170126658 -0.0658441037
C  -1.7862338856 -1.1603417654  0.1012047762
H  -2.2088416653 -2.1541287938  0.3949506554
C  -0.4482949723 -1.1690593276 -0.1207193313
H  -0.0519470540 -2.1787420362 -0.2930401063
14
Step 33  E=-436.4613468948  phi=37.301  theta=79.787
C  -1.6477848156  1.4492581837  0.0900537139
C  -0.3238854649  1.1983953793  0.0427250418
C   0.1545062144 -0.0052693654 -0.1683360965
C  -2.4554307389  0.2537129538  0.1282957629
H  -1.9539780431  2.4564078235  0.3570460027
H   0.3901471200  1.9639535868 -0.0174520121
H  -3.4755279365  0.6430594273 -0.0481676751
N   1.7423329066  0.0401500777 -0.2118146726
O   2.1575419237 -1.1278153245 -0.2729571277
O   2.3927808427  1.1157990151 -0.0701619848
C  -1.7972848448 -1.1525568565  0.0991064183
H  -2.1883675096 -2.1786649357  0.4066467356
C  -0.4480115358 -1.1677450755 -0.1216103994
H  -0.0295707203 -2.1340673893 -0.3202714002
14
Step 34  E=-436.4564898644  phi=37.620  theta=80.627
C  -1.6443310963  1.4674182178  0.0921260431
C  -0.3226114824  1.1951524613  0.0462170877
C   0.1575176266  0.0054351030 -0.1775697603
C  -2.4426088622  0.2509051540  0.1388354318
H  -1.9487758638  2.4497567652  0.3850992511
H   0.3895263642  1.9362133022 -0.0054728366
H  -3.4690687779  0.6546577754 -0.0509683963
N   1.7443557512  0.0355814402 -0.2116631478
O   2.1646924017 -1.1310870196 -0.2861488125
O   2.3954938840  1.1136420048 -0.0746794850
C  -1.8090459950 -1.1438670858  0.0972632480
H  -2.1695043497 -2.1959411265  0.4148520065
C  -0.4483855330 -1.1673769940 -0.1225582293
H  -0.0043774036 -2.0893432117 -0.3463203468
14
Step 35  E=-436.4508417648  phi=37.957  theta=81.459
C  -1.6412060391  1.4843424755  0.0945388663
C  -0.3215451736  1.1926502588  0.0495216756
C   0.1622213489  0.0163321888 -0.1868289114
C  -2.4295780969  0.2482492390  0.1491374594
H  -1.9467271762  2.4440661502  0.4113102663
H   0.3931776476  1.9147260704  0.0076683366
H  -3.4618148471  0.6590378553 -0.0503881285
N   1.7464131502  0.0307898633 -0.2114110715
O   2.1720339128 -1.1336142564 -0.2993174458
O   2.3976317509  1.1105236734 -0.0793859205
C  -1.8212538615 -1.1344785886  0.0957079214
H  -2.1526376274 -2.2046424102  0.4192290274
C  -0.4494897239 -1.1674376659 -0.1235530207
H   0.0242844418 -2.0480742654 -0.3715632721
14
Step 36  E=-436.4467656903  phi=38.300  theta=82.273
C  -1.6383152591  1.4997276269  0.0972715072
C  -0.3208299918  1.1910215368  0.0526659895
C   0.1684958638  0.0269771689 -0.1960952940
C  -2.4165297445  0.2459145856  0.1591460102
H  -1.9482403957  2.4411207779  0.4361469688
H   0.4025415843  1.9013163539  0.0220107919
H  -3.4531022448  0.6558277032 -0.0460695192
N   1.7485353973  0.0258263894 -0.2111086409
O   2.1795308074 -1.1353880020 -0.3124450819
O   2.3991945162  1.1064359881 -0.0842688820
C  -1.8336291353 -1.1245710765  0.0944560727
H  -2.1383508502 -2.2040571808  0.4196297687
C  -0.4513658134 -1.1674491671 -0.1245859902
H   0.0569281861 -2.0131764893 -0.3964238694
14
Step 37  E=-436.4457531635  phi=38.636  theta=83.052
C  -1.6355863577  1.5133472281  0.1003053678
C  -0.3205003026  1.1904636324  0.0556738090
C   0.1761993282  0.0369653359 -0.2053469890
C  -2.4036314887  0.2440486168  0.1688153216
H  -1.9535148517  2.4420881823  0.4599996016
H   0.4179054307  1.8965870702  0.0376571043
H  -3.4426203051  0.6449392901 -0.0377446797
N   1.7507474298  0.0207432611 -0.2108064648
O   2.1871517222 -1.1364106014 -0.3255144894
O   2.4001894495  1.1013810237 -0.0893142665
C  -1.8458892744 -1.1142950557  0.0935073478
H  -2.1273628331 -2.1940582886  0.4160923724
C  -0.4539891431 -1.1670552329 -0.1256714110
H   0.0934865014 -1.9862204149 -0.4211002086
14
Step 38  E=-436.4474178241  phi=38.951  theta=83.777
C  -1.6329806936  1.5250756105  0.1036375576
C  -0.3204629905  1.1912286377  0.0585657912
C   0.1851716563  0.0459573326 -0.2145559220
C  -2.3910240447  0.2427747573  0.1781106975
H  -1.9624449626  2.4472562768  0.4830207064
H   0.4382488988  1.8998314049  0.0547177302
H  -3.4304206566  0.6265784401 -0.0252461144
N   1.7530684924  0.0155919268 -0.2105553856
O   2.1948700149 -1.1366954817 -0.3385094045
O   2.4006312144  1.0953712884 -0.0945063032
C  -1.8577577648 -1.1037660385  0.0928460925
H  -2.1204814836 -2.1751036539  0.4088380503
C  -0.4572411275 -1.1660597374 -0.1268648040
H   0.1329591077 -1.9671295308 -0.4453286111
14
Step 39  E=-436.4500691844  phi=39.239  theta=84.422
C  -1.6304979370  1.5348913245  0.1072888451
C  -0.3205185331  1.1935805200  0.0613608264
C   0.1952347464  0.0536963760 -0.2236851873
C  -2.3788177139  0.2421914038  0.1870090418
H  -1.9745862328  2.4559974068  0.5050355086
H   0.4615368177  1.9093708951  0.0732371574
H  -3.4169210285  0.6012429455 -0.0085117527
N   1.7555114789  0.0104211242 -0.2104062846
O   2.2026641782 -1.1362668810 -0.3514148184
O   2.4005420252  1.0884303240 -0.0998275885
C  -1.8689690886 -1.0930558081  0.0924411338
H  -2.1185740770 -2.1482696342  0.3982722655
C  -0.4609125714 -1.1644044240 -0.1282631624
H   0.1734260151 -1.9545270618 -0.4683618675
14
Step 40  E=-436.4520964855  phi=39.491  theta=84.963
C  -1.6281718090  1.5428589284  0.1113023076
C  -0.3204064434  1.1977408619  0.0640757785
C   0.2061919626  0.0600163935 -0.2326868279
C  -2.3670894109  0.2423718880  0.1954989767
H  -1.9892031648  2.4669748878  0.5255657093
H   0.4852707052  1.9231005062  0.0931451493
H  -3.4029018143  0.5697074609  0.0124165373
N   1.7580819931  0.0052748793 -0.2104098234
O   2.2105181208 -1.1351596746 -0.3642172334
O   2.3999516313  1.0805936399 -0.1052591323
C  -1.8792698960 -1.0821823803  0.0922448737
H  -2.1225502852 -2.1153043960  0.3849871042
C  -0.4647388379 -1.1621110981 -0.1299865029
H   0.2124360747 -1.9464474275 -0.4891669304
14
Step 41  E=-436.4528845865  phi=39.704  theta=85.377
C  -1.6260590038  1.5490981908  0.1157343064
C  -0.3198512688  1.2038484192  0.0667230548
C   0.2178288786  0.0648413641 -0.2415008320
C  -2.3558821681  0.2433659117  0.2035802211
H  -2.0053792994  2.4784887825  0.5439465242
H   0.5070127386  1.9389677053  0.1142515998
H  -3.3894737134  0.5329862979  0.0374053214
N   1.7607773269  0.0001905996 -0.2106160951
O   2.2184202063 -1.1334194968 -0.3769048899
O   2.3988972949  1.0719098204 -0.1107804314
C  -1.8884177411 -1.0711026743  0.0921929320
H  -2.1333505853 -2.0786524508  0.3697509583
C  -0.4684459670 -1.1592282046 -0.1321535904
H   0.2474955150 -1.9409758519 -0.5066907180
14
Step 42  E=-436.4529859030  phi=39.878  theta=85.645
C  -1.6242252561  1.5537529410  0.1206428286
C  -0.3185958486  1.2119430768  0.0693075881
C   0.2299166874  0.0681772917 -0.2500558206
C  -2.3452105928  0.2452035756  0.2112617338
H  -2.0221460809  2.4888199691  0.5594758761
H   0.5247163260  1.9552578138  0.1362732348
H  -3.3779774549  0.4922639892  0.0662580465
N   1.7635855590 -0.0048033174 -0.2110742640
O   2.2263632504 -1.1311022997 -0.3894679300
O   2.3974237231  1.0624418395 -0.1163695103
C  -1.8961795886 -1.0597169185  0.0922067505
H  -2.1519247557 -2.0413516925  0.3534590799
C  -0.4717861800 -1.1558014529 -0.1348639701
H   0.2764426928 -1.9365924933 -0.5200553607
14
Step 43  E=-436.4538520039  phi=40.015  theta=85.758
C  -1.6227319679  1.5569678176  0.1260777144
C  -0.3164220409  1.2219700806  0.0718250222
C   0.2422178873  0.0700990587 -0.2582713294
C  -2.3350765516  0.2479023646  0.2185587160
H  -2.0385932772  2.4964820753  0.5715411357
H   0.5368685691  1.9707064927  0.1588716124
H  -3.3697753969  0.4487961617  0.0987584232
N   1.7664849824 -0.0096899130 -0.2118321797
O   2.2343436605 -1.1282738804 -0.4018985941
O   2.3955826544  1.0522684367 -0.1220029623