14
Step 0  E=-436.5544344413  phi=67.173  theta=61.393
C  -1.8805601432  1.1909277824 -0.1057585340
C  -0.4794996656  1.2078081985 -0.0932937701
C   0.1966978978  0.0146055812  0.0023591217
C  -2.5643163058 -0.0218691975 -0.0468161100
H  -2.4314425140  2.0996420715 -0.2139051200
H   0.0528874772  2.1208490210 -0.1415773818
H  -3.6677752886 -0.0423697020 -0.0407350572
N   1.6490935297  0.0162715020  0.0161274748
O   2.2131306977 -1.0523161538  0.1056303047
O   2.2119265770  1.0849619688 -0.0346833556
C  -1.8804178019 -1.1895532415  0.0577152743
H  -2.4224707213 -2.1431234929  0.0990067207
C  -0.4821334978 -1.2378129872  0.0660199529
H   0.0890014666 -2.1172772726  0.1622657936
14
Step 1  E=-436.5401487600  phi=67.710  theta=61.034
C  -1.8749984526  1.1920331317 -0.0918792576
C  -0.4609649894  1.2076811461 -0.0910067199
C   0.2160018923  0.0274720667  0.0015081447
C  -2.5585997033 -0.0243463418 -0.0474902998
H  -2.4300420718  2.0788026340 -0.2310891210
H   0.0453951367  2.1120080558 -0.1322359730
H  -3.6781718844 -0.0572130685 -0.0162414597
N   1.6451191236  0.0203390351  0.0027734483
O   2.2047447331 -1.0474750911  0.0958430040
O   2.2156042337  1.0800067250 -0.0332256704
C  -1.8891619023 -1.1624883199  0.0629843670
H  -2.4363246997 -2.1262777533  0.0884574959
C  -0.4807225010 -1.2596572285  0.0539173085
H   0.0917751201 -2.1072835110  0.1699275452
14
Step 2  E=-436.5199198366  phi=68.229  theta=60.693
C  -1.8691261957  1.1927229726 -0.0781485026
C  -0.4431814363  1.2072843504 -0.0886978411
C   0.2346347264  0.0393975222  0.0005925971
C  -2.5535042511 -0.0258593183 -0.0480603369
H  -2.4299357252  2.0613164329 -0.2479443491
H   0.0409752953  2.1077239425 -0.1233357501
H  -3.6842080143 -0.0710869208  0.0075509105
N   1.6414131881  0.0243684840 -0.0104492357
O   2.1964055469 -1.0426179416  0.0860608848
O   2.2192796583  1.0750621266 -0.0318585274
C  -1.8971426555 -1.1368399450  0.0682493255
H  -2.4487172657 -2.1060997591  0.0783721574
C  -0.4796028829 -1.2798813297  0.0418804358
H   0.0975185456 -2.1039361220  0.1777708238
14
Step 3  E=-436.4981288267  phi=68.713  theta=60.376
C  -1.8628466848  1.1928828653 -0.0646257796
C  -0.4264440344  1.2065789368 -0.0863425924
C   0.2523177415  0.0500188292 -0.0004169942
C  -2.5493423467 -0.0258843397 -0.0484942770
H  -2.4314698146  2.0484531206 -0.2643823159
H   0.0408866140  2.1101017331 -0.1150307203
H  -3.6847464258 -0.0835667345  0.0302222258
N   1.6380905872  0.0283356244 -0.0234879305
O   2.1881461985 -1.0378279643  0.0762723681
O   2.2230031607  1.0702368551 -0.0306011381
C  -1.9039604694 -1.1133551802  0.0734946058
H  -2.4594644329 -2.0820637372  0.0690498499
C  -0.4789053178 -1.2979184146  0.0299330354
H   0.1072828029 -2.1095728834  0.1860302483
14
Step 4  E=-436.4780657106  phi=69.148  theta=60.090
C  -1.8561189499  1.1924836941 -0.0513774764
C  -0.4109631414  1.2056252971 -0.0839213889
C   0.2687886277  0.0590512348 -0.0015514926
C  -2.5463805259 -0.0239182503 -0.0487667377
H  -2.4345230067  2.0407013469 -0.2802344374
H   0.0456360723  2.1199614174 -0.1074079368
H  -3.6792861484 -0.0942222816  0.0513628784
N   1.6352752899  0.0322139049 -0.0362939035
O   2.1800035242 -1.0331900964  0.0664654435
O   2.2268260801  1.0656375559 -0.0294709233
C  -1.9092230716 -1.0927202409  0.0787094163
H  -2.4685841244 -2.0541805078  0.0607943059
C  -0.4786763385 -1.3134344690  0.0181172645
H   0.1210319297 -2.1246780812  0.1947699600
14
Step 5  E=-436.4609406777  phi=69.520  theta=59.840
C  -1.8489621313  1.1915852313 -0.0384825208
C  -0.3968533668  1.2045997322 -0.0814185001
C   0.2837988271  0.0662831657 -0.0028411132
C  -2.5448072573 -0.0195326210 -0.0488555446
H  -2.4384662752  2.0377502667 -0.2951687472
H   0.0548967699  2.1365364976 -0.1005000696
H  -3.6679638439 -0.1026294078  0.0706089249
N   1.6330943468  0.0359756833 -0.0488230059
O   2.1720186291 -1.0287901744  0.0566278360
O   2.2307992826  1.0613662288 -0.0284834111
C  -1.9125789753 -1.0754981551  0.0838837282
H  -2.4762960549 -2.0230185827  0.0538886567
C  -0.4788553319 -1.3263282743  0.0065043377
H   0.1374824992 -2.1477968835  0.2037191133
14
Step 6  E=-436.4466258986  phi=69.820  theta=59.635
C  -1.8414456443  1.1903203420 -0.0260326106
C  -0.3841456604  1.2037654588 -0.0788198364
C   0.2971141341  0.0715721600 -0.0043142057
C  -2.5446971261 -0.0124307629 -0.0487364096
H  -2.4422742414  2.0386855751 -0.3086700288
H   0.0676912123  2.1577158594 -0.0943112366
H  -3.6515552276 -0.1083869014  0.0876749080
N   1.6316702545  0.0395938711 -0.0610360595
O   2.1642369936 -1.0247140483  0.0467472087
O   2.2349715433  1.0575177775 -0.0276522146
C  -1.9137496870 -1.0620664038  0.0890019332
H  -2.4830264041 -1.9897035460  0.0485736801
C  -0.4793021865 -1.3366717255 -0.0048081544
H   0.1544777762 -2.1761469994  0.2122749194
14
Step 7  E=-436.4348614394  phi=70.040  theta=59.482
C  -1.8336702537  1.1888687539 -0.0141267898
C  -0.3728124039  1.2034124366 -0.0761111180
C   0.3085187028  0.0748417089 -0.0059968966
C  -2.5459802890 -0.0024932196 -0.0483779513
H  -2.4447323829  2.0422964428 -0.3200902402
H   0.0827204219  2.1806684705 -0.0888385825
H  -3.6314800436 -0.1111413751  0.1023859629
N   1.6311121240  0.0430437381 -0.0728988679
O   2.1567080522 -1.0210465600  0.0368113779
O   2.2393878772  1.0541777957 -0.0269890665
C  -1.9125546450 -1.0525700717  0.0940362989
H  -2.4894095117 -1.9558791134  0.0450301209
C  -0.4798495201 -1.3446283890 -0.0157099998
H   0.1696108630 -2.2064889335  0.2196488812
14
Step 8  E=-436.4257756145  phi=70.175  theta=59.389
C  -1.8257476895  1.1874311441 -0.0028630785
C  -0.3627916805  1.2037960030 -0.0732772268
C   0.3178216960  0.0760781511 -0.0079133524
C  -2.5484296673  0.0102033243 -0.0477396985
H  -2.4446517358  2.0473673117 -0.3287373394
H   0.0986699777  2.2025051248 -0.0840804240
H  -3.6097841079 -0.1106198818  0.1147069086
N   1.6315062014  0.0463045577 -0.0843818449
O   2.1494845572 -1.0178702824  0.0268085425
O   2.2440879361  1.0514206278 -0.0265039018
C  -1.9089237908 -1.0469088568  0.0989429506
H  -2.4962621945 -1.9235914229  0.0433681219
C  -0.4803463591 -1.3503890320 -0.0260937128
H   0.1807371858 -2.2358024086  0.2250408596
14
Step 9  E=-436.4198469819  phi=70.224  theta=59.361
C  -1.8177841123  1.1862102607  0.0076696334
C  -0.3540034567  1.2050957265 -0.0703026496
C   0.3248661833  0.0753266281 -0.0100864251
C  -2.5516755787  0.0254000769 -0.0467742563
H  -2.4410296747  2.0528814777 -0.3339633354
H   0.1144036446  2.2207398045 -0.0800337500
H  -3.5890401853 -0.1066628536  0.1247578981
N   1.6329066387  0.0493608530 -0.0954593107
O   2.1426217822 -1.0152639694  0.0167275053
O   2.2491045816  1.0493076865 -0.0262049739
C  -1.9028972728 -1.0447676951  0.1036620155
H  -2.5044920462 -1.8950515184  0.0436297922
C  -0.4806796382 -1.3541365719 -0.0358648610
H   0.1862317942 -2.2616247675  0.2277585023
14
Step 10  E=-436.4177398380  phi=70.188  theta=59.404
C  -1.8098685564  1.1853998234  0.0173976935
C  -0.3463585834  1.2073974732 -0.0671724691
C   0.3295389601  0.0726857145 -0.0125384088
C  -2.5552519280  0.0426967916 -0.0454319176
H  -2.4331415850  2.0581280435 -0.3352297012
H   0.1290488716  2.2335145828 -0.0766879267
H  -3.5720911251 -0.0992399399  0.1327974352
N   1.6353278449  0.0522030580 -0.1061085626
O   2.1361764118 -1.0133008545  0.0065578798
O   2.2544626996  1.0478859933 -0.0260990036
C  -1.8946183805 -1.0456870695  0.1081215448
H  -2.5149076273 -1.8722657296  0.0458102803
C  -0.4807772685 -1.3560333495 -0.0449466823
H   0.1850451151 -2.2821375073  0.2272701208
14
Step 11  E=-436.4200171312  phi=70.071  theta=59.517
C  -1.8020652432  1.1851790003  0.0262665846
C  -0.3397643932  1.2106917111 -0.0638734634
C   0.3317795742  0.0683009199 -0.0152916188
C  -2.5586695937  0.0616033392 -0.0436640105
H  -2.4205787295  2.0627395567 -0.3321473451
H   0.1420186430  2.2396650156 -0.0740194124
H  -3.5615885869 -0.0884258885  0.1391539890
N   1.6387398530  0.0548273516 -0.1163088872
O   2.1302052968 -1.0120466979 -0.0037097378
O   2.2601782925  1.0471869524 -0.0261913625
C  -1.8843265630 -1.0491525454  0.1122435012
H  -2.5279464366 -1.8566106745  0.0498936177
C  -0.4806015437 -1.3562192482 -0.0532812907
H   0.1766635938 -2.2961356159  0.2232154991
14
Step 12  E=-436.4266304999  phi=69.882  theta=59.699
C  -1.7944083955  1.1857095665  0.0342431819
C  -0.3341299278  1.2148797761 -0.0603950907
C   0.3315867251  0.0623575833 -0.0183685482
C  -2.5615015891  0.0815860331 -0.0414223181
H  -2.4032553263  2.0666934216 -0.3244977823
H   0.1530112265  2.2387155818 -0.0719893792
H  -3.5593913260 -0.0743274304  0.1441100904
N   1.6430678358  0.0572345916 -0.1260407178
O   2.1247640279 -1.0115575826 -0.0140836541
O   2.2662578487  1.0472253803 -0.0264862885
C  -1.8723511701 -1.0546734591  0.1159503280
H  -2.5434173716 -1.8485201854  0.0558853679
C  -0.4801400798 -1.3548124881 -0.0608298332
H   0.1610525436 -2.3029761931  0.2154012980
14
Step 13  E=-436.4364789958  phi=69.630  theta=59.949
C  -1.7868990188  1.1871332594  0.0413169532
C  -0.3293721829  1.2197823866 -0.0567302533
C   0.3290206865  0.0550736172 -0.0217914434
C  -2.5634545401  0.1021017372 -0.0386561665
H  -2.3814018557  2.0703004566 -0.3122426664
H   0.1620124830  2.2308631958 -0.0705445836
H  -3.5660402953 -0.0569901193  0.1477843005
N   1.6481962495  0.0594284588 -0.1352851147
O   2.1199053175 -1.0118775266 -0.0245710284
O   2.2726979780  1.0479988378 -0.0269871297
C  -1.8590992102 -1.0618274796  0.1191717606
H  -2.5603973645 -1.8474426184  0.0638198818
C  -0.4793984966 -1.3519088768 -0.0675729971
H   0.1386191044 -2.3025566966  0.2037977877
14
Step 14  E=-436.4474890611  phi=69.326  theta=60.260
C  -1.7795041250  1.1895678796  0.0475002785
C  -0.3254233270  1.2251480124 -0.0528757872
C   0.3242013630  0.0466923162 -0.0255812880
C  -2.5644008184  0.1226224428 -0.0353119304
H  -2.3555509862  2.0741897955 -0.2955246674
H   0.1693092546  2.2169695223 -0.0696214382
H  -3.5805781416 -0.0363456908  0.1500791447
N   1.6539772312  0.0614131030 -0.1440236751
O   2.1156772703 -1.0130360202 -0.0351778843
O   2.2794853085  1.0494873263 -0.0276966052
C  -1.8450320761 -1.0702665295  0.1218513924
H  -2.5773557138 -1.8520835767  0.0737360674
C  -0.4783966947 -1.3475778577 -0.0735123204
H   0.1102052339 -2.2953423323  0.1885434643
14
Step 15  E=-436.4572854767  phi=68.983  theta=60.626
C  -1.7721597113  1.1931024758  0.0528275385
C  -0.3222376810  1.2306619004 -0.0488326437
C   0.3173023379  0.0374752863 -0.0297563287
C  -2.5643629052  0.1426560497 -0.0313379893
H  -2.3265119532  2.0792847183 -0.2746570206
H   0.1755080216  2.1985492343 -0.0691531232
H  -3.6008157120 -0.0122409472  0.1507284739
N   1.6602420653  0.0631906879 -0.1522388598
O   2.1121217380 -1.0150456456 -0.0459091762
O   2.2865966545  1.0516534222 -0.0286170695
C  -1.8306344547 -1.0796980340  0.1239519014
H  -2.5924457403 -1.8607912746  0.0856380887
C  -0.4771688601 -1.3418551635 -0.0786719768
H   0.0771019204 -2.2824399076  0.1699554879
14
Step 16  E=-436.4640521788  phi=68.613  theta=61.042
C  -1.7647785433  1.1977930129  0.0573523576
C  -0.3197961958  1.2359591136 -0.0446057457
C   0.3085421827  0.0276955133 -0.0343303963
C  -2.5634654720  0.1617659155 -0.0266931234
H  -2.2953205284  2.0867494588 -0.2500944947
H   0.1815366112  2.1777094004 -0.0690788403
H  -3.6238888769  0.0154712452  0.1494109533
N   1.6668139661  0.0647593019 -0.1599146266
O   2.1092727442 -1.0179001559 -0.0567688639
O   2.2939994866  1.0544428948 -0.0297507660
C  -1.8163844552 -1.0898608587  0.1254578339
H  -2.6038270025 -1.8719100992  0.0994634108
C  -0.4757653673 -1.3347346690 -0.0830998826
H   0.0410558331 -2.2656888687  0.1485342563
14
Step 17  E=-436.4672263537  phi=68.229  theta=61.501
C  -1.7572635353  1.2036617613  0.0611423486
C  -0.3181046185  1.2406476498 -0.0402037250
C   0.2981747873  0.0176307389 -0.0393114047
C  -2.5618801097  0.1795866762 -0.0213537009
H  -2.2631488815  2.0978767732 -0.2223779829
H   0.1885885994  2.1569691722 -0.0693525352
H  -3.6468357582  0.0468356786  0.1458643961
N   1.6735204109  0.0661115260 -0.1670372189
O   2.1071553029 -1.0215731621 -0.0677599800
O   2.3016527275  1.0577858540 -0.0311000407
C  -1.8027314759 -1.1005068361  0.1263757255
H  -2.6099119052 -1.8840111197  0.1150690557
C  -0.4742521767 -1.3261658702 -0.0868660622
H   0.0042186976 -2.2476925666  0.1249386868
14
Step 18  E=-436.4678013195  phi=67.842  theta=61.997
C  -1.7495265329  1.2107043309  0.0642714531
C  -0.3171810801  1.2443472346 -0.0356389957
C   0.2864797512  0.0075575793 -0.0447002925
C  -2.5597810694  0.1958343030 -0.0153168067
H  -2.2311685188  2.1138900274 -0.1920530507
H   0.1979619992  2.1388939009 -0.0699453725
H  -3.6670132057  0.0817354900  0.1399576353
N   1.6802035760  0.0672338509 -0.1735959635
O   2.1057846593 -1.0260177642 -0.0788846531
O   2.3095078769  1.0615984188 -0.0326675022
C  -1.7900823621 -1.1113906919  0.1267322333
H  -2.6095081614 -1.8960017993  0.1322341935
C  -0.4727024396 -1.3160680797 -0.0900556074
H  -0.0310267274 -2.2316508421  0.0999022614
14
Step 19  E=-436.4679213287  phi=67.465  theta=62.529
C  -1.7415094632  1.2189047072  0.0668115611
C  -0.3170317255  1.2467424255 -0.0309286840
C   0.2737544409 -0.0022528396 -0.0504905939
C  -2.5573165433  0.2103092956 -0.0085993240
H  -2.2003835084  2.1356652530 -0.1595812624
H   0.2107726700  2.1255540343 -0.0708346903
H  -3.6823186091  0.1198770525  0.1317145121
N   1.6867280377  0.0681069082 -0.1795839849
O   2.1051660789 -1.0311671944 -0.0901440657
O   2.3175104106  1.0657848771 -0.0344561043
C  -1.7787928939 -1.1222658575  0.1265711517
H  -2.6018828629 -1.9071601064  0.1506727915
C  -0.4711765238 -1.3043751856 -0.0927550493
H  -0.0624058252 -2.2208357081  0.0740766986
14
Step 20  E=-436.4695663794  phi=67.107  theta=63.093
C  -1.7332025345  1.2282541077  0.0688265697
C  -0.3176203877  1.2476360734 -0.0260965378
C   0.2603077790 -0.0115370714 -0.0566686908
C  -2.5545929597  0.2228942728 -0.0012346857
H  -2.1714827976  2.1634391150 -0.1252821677
H   0.2276078617  2.1179698452 -0.0719774877
H  -3.6912707076  0.1608052870  0.1213051950
N   1.6929854188  0.0687063958 -0.1849987638
O   2.1052951495 -1.0369365182 -0.1015383522
O   2.3256013318  1.0702402460 -0.0364691439
C  -1.7691604476 -1.1328833591  0.1259497568
H  -2.5867880892 -1.9171384920  0.1700523624
C  -0.4696957766 -1.2911116710 -0.0950360056
H  -0.0881924111 -2.2176990106  0.0478506452
14
Step 21  E=-436.4730493858  phi=66.778  theta=63.689
C  -1.7246532607  1.2387644530  0.0703718357
C  -0.3188463944  1.2469796362 -0.0211748895
C   0.2464553397 -0.0200394881 -0.0632145764
C  -2.5516675089  0.2335469199  0.0067310882
H  -2.1447715306  2.1966209009 -0.0893413949
H   0.2482781011  2.1158142342 -0.0732791836
H  -3.6930183404  0.2039339730  0.1090214081
N   1.6988962288  0.0690045720 -0.1898425235
O   2.1061584598 -1.0432253035 -0.1130664356
O   2.3337187587  1.0748530742 -0.0387101705
C  -1.7614153117 -1.1429914601  0.1249343322
H  -2.5644769946 -1.9259668871  0.1900188069
C  -0.4682274983 -1.2764703718 -0.0969458492
H  -0.1075436523 -2.2229531465  0.0212600891
14
Step 22  E=-436.4767710896  phi=66.485  theta=64.317
C  -1.7159628980  1.2504679003  0.0714992608
C  -0.3205435883  1.2448649945 -0.0162050428
C   0.2325159591 -0.0275114976 -0.0701030531
C  -2.5485450808  0.2422897470  0.0152430304
H  -2.1202099217  2.2338105699 -0.0518846473
H   0.2718143242  2.1175532606 -0.0745771575
H  -3.6873257123  0.2485820140  0.0952458366
N   1.7044094720  0.0689721252 -0.1941224596
O   2.1077345757 -1.0499210420 -0.1247258401
O   2.3417994360  1.0795083103 -0.0411828187
C  -1.7557098416 -1.1523349333  0.1235945700
H  -2.5357188145 -1.9340648480  0.2102292981
C  -0.4666981326 -1.2608422148 -0.0985127261
H  -0.1205161043 -2.2352068982 -0.0059189730
14
Step 23  E=-436.4785423400  phi=66.237  theta=64.978
C  -1.7072722468  1.2634015433  0.0722647748
C  -0.3225013002  1.2414848350 -0.0112352063
C   0.2188087253 -0.0337118539 -0.0773053482
C  -2.5451780985  0.2491976867  0.0242402823
H  -2.0975326792  2.2730269449 -0.0130760942
H   0.2967128299  2.1209373570 -0.0756508472
H  -3.6745557961  0.2940129099  0.0804198050
N   1.7095006497  0.0685802697 -0.1978508115
O   2.1099951228 -1.0569030612 -0.1365124982
O   2.3497801926  1.0840900717 -0.0438906332
C  -1.7521085275 -1.1606540983  0.1219969051
H  -2.5017971149 -1.9422540266  0.2303936253
C  -0.4650314652 -1.2447739019 -0.0997603467
H  -0.1277711278 -2.2514319953 -0.0339513665
14
Step 24  E=-436.4771228057  phi=66.041  theta=65.670
C  -1.6987425053  1.2775848193  0.0727339576
C  -0.3244956255  1.2370848671 -0.0063166535
C   0.2056492093 -0.0384104922 -0.0847909079
C  -2.5414690180  0.2543843982  0.0336587442
H  -2.0763898578  2.3120466180  0.0268077399
H   0.3212853014  2.1235744815 -0.0762514677
H  -3.6556496817  0.3394776317  0.0650095900
N   1.7141685543  0.0678028455 -0.2010447890
O   2.1129059256 -1.0640465834 -0.1484205997
O   2.3575990786  1.0884842678 -0.0468368370
C  -1.7505849475 -1.1676853909  0.1201978313
H  -2.4644513349 -1.9517383948  0.2503186401
C  -0.4631888653 -1.2288817747 -0.1007203320
H  -0.1301944410 -2.2679157855 -0.0629520023
14
Step 25  E=-436.4728115038  phi=65.903  theta=66.394
C  -1.6905365748  1.2929995277  0.0729836165
C  -0.3263174000  1.2319270584 -0.0014995169
C   0.1933439454 -0.0413972389 -0.0925293649
C  -2.5372770332  0.2579885293  0.0434336191
H  -2.0564595351  2.3487291612  0.0673532372
H   0.3439628432  2.1233620684 -0.0761340716
H  -3.6320799520  0.3842606196  0.0494709977
N   1.7184314159  0.0666182570 -0.2037263800
O   2.1164282009 -1.0712266744 -0.1604425061
O   2.3651965507  1.0925807897 -0.0500240563
C  -1.7510326247 -1.1731683970  0.1182393870
H  -2.4257079871 -1.9639935796  0.2699393155
C  -0.4611915344 -1.2137692165 -0.1014353221
H  -0.1286307112 -2.2811326076 -0.0928157988
14
Step 26  E=-436.4671315912  phi=65.828  theta=67.147
C  -1.6828034169  1.3095778281  0.0730997778
C  -0.3277911905  1.2262693047  0.0031706010
C   0.1821828480 -0.0424956827 -0.1004923048
C  -2.5324311781  0.2601615802  0.0535019189
H  -2.0375129312  2.3812533028  0.1080307899
H   0.3634841146  2.1187175775 -0.0750815613
H  -3.6057426742  0.4277220139  0.0342145365
N   1.7223226716  0.0650111532 -0.2059220693
O   2.1205196859 -1.0783218590 -0.1725687361
O   2.3725165243  1.0962753242 -0.0534541483
C  -1.7532933022 -1.1768658281  0.1161495055
H  -2.3875722643 -1.9804985188  0.2893060476
C  -0.4591198267 -1.1999710206 -0.1019553707
H  -0.1237748481 -2.2882455017 -0.1232479122
14
Step 27  E=-436.4620447232  phi=65.819  theta=67.927
C  -1.6756661473  1.3271985112  0.0731736760
C  -0.3287866220  1.2203575280  0.0076550152
C   0.1724292541 -0.0415819517 -0.1086545829
C  -2.5267519019  0.2610594330  0.0638045052
H  -2.0194391424  2.4082521464  0.1482425966
H   0.3789797027  2.1086602114 -0.0729180025
H  -3.5787546843  0.4693199500  0.0195782144
N   1.7258865360  0.0629736308 -0.2076624952
O   2.1251356549 -1.0852172037 -0.1847880292
O   2.3795066340  1.0994710695 -0.0571279601
C  -1.7571968799 -1.1785983453  0.1139489770
H  -2.3516356213 -2.0022993279  0.3085006921
C  -0.4570962343 -1.1879212157 -0.1023326267
H  -0.1161628897 -2.2872765290 -0.1538328217
14
Step 28  E=-436.4590431523  phi=65.878  theta=68.734
C  -1.6692137636  1.3456887109  0.0732970290
C  -0.3292241437  1.2144237528  0.0119236098
C   0.1643091802 -0.0386057338 -0.1169949610
C  -2.5200804597  0.2608395068  0.0742867865
H  -2.0022474612  2.4288739495  0.1873780661
H   0.3900028718  2.0928156354 -0.0695136321
H  -3.5531530697  0.5085933696  0.0058208109
N   1.7291738232  0.0605061318 -0.2089820523
O   2.1302299377 -1.0918068425 -0.1970874862
O   2.3861189973  1.1020797918 -0.0610451010
C  -1.7625961511 -1.1782843216  0.1116635433
H  -2.3187614485 -2.0295341065  0.3274980338
C  -0.4552619752 -1.1779330363 -0.1026174501
H  -0.1061974465 -2.2771043061 -0.1841015035
14
Step 29  E=-436.4585002150  phi=66.003  theta=69.563
C  -1.6634963581  1.3648278969  0.0735572275
C  -0.3290785608  1.2086854616  0.0159560564
C   0.1580014629 -0.0336100613 -0.1254959960
C  -2.5123106906  0.2596640514  0.0848972894
H  -1.9860621055  2.4428035311  0.2248674976
H   0.3965424191  2.0714022623 -0.0647863440
H  -3.5305536039  0.5450971022 -0.0068546389
N   1.7322381773  0.0576179612 -0.2099184642
O   2.1357557931 -1.0979959308 -0.2094527685
O   2.3923108450  1.1040225325 -0.0652037780
C  -1.7693777890 -1.1759636900  0.1093350057
H  -2.2890312591 -2.0611620332  0.3460455243
C  -0.4537552183 -1.1701824204 -0.1028563228
H  -0.0941684481 -2.2574213770 -0.2135859493
14
Step 30  E=-436.4595814286  phi=66.189  theta=70.412
C  -1.6585235520  1.3843520493  0.0740325324
C  -0.3283819672  1.2033433193  0.0197428156
C   0.1536306333 -0.0267452411 -0.1341433700
C  -2.5034134366  0.2577070020  0.0955843780
H  -1.9711165679  2.4502690529  0.2602331787
H   0.3990390097  2.0452268935 -0.0587020744
H  -3.5118810456  0.5783095666 -0.0182528898
N   1.7351328870  0.0543273936 -0.2105123451
O   2.1416666545 -1.1037020072 -0.2218683393
O   2.3980447581  1.1052301328 -0.0696006620
C  -1.7774459818 -1.1717899520  0.1070240494
H  -2.2619940644 -2.0950758370  0.3636348146
C  -0.4526964569 -1.1646936944 -0.1030904975
H  -0.0802511390 -2.2287216781 -0.2418676104
14
Step 31  E=-436.4606705118  phi=66.429  theta=71.278
C  -1.6542660173  1.4039575783  0.0747872892
C  -0.3272254904  1.1985765672  0.0232858312
C   0.1512644873 -0.0182720740 -0.1429248967
C  -2.4934440891  0.2551595680  0.1062928532
H  -1.9577486688  2.4520414746  0.2931389391
H   0.3984090167  2.0156876345 -0.0512737004
H  -3.4972802501  0.6075633797 -0.0281346581
N   1.7379084347  0.0506614096 -0.2108067736
O   2.1479168636 -1.1088558096 -0.2343177336
O   2.4032888219  1.1056435433 -0.0742307716
C  -1.7866930210 -1.1659944444  0.1048032230
H  -2.2370533483 -2.1285473452  0.3795814983
C  -0.4521834561 -1.1613304085 -0.1033541141
H  -0.0644748152 -2.1923332926 -0.2686305676
14
Step 32  E=-436.4600510748  phi=66.712  theta=72.155
C  -1.6506599536  1.4233064940  0.0758674512
C  -0.3257576094  1.1945377174  0.0265985020
C   0.1509166635 -0.0085515157 -0.1518293964
C  -2.4825313264  0.2522302578  0.1169624808
H  -1.9463930421  2.4494154495  0.3234355379
H   0.3960558130  1.9847557616 -0.0425556325
H  -3.4862347478  0.6320454647 -0.0361870515
N   1.7406108052  0.0466551311 -0.2108468921
O   2.1544622672 -1.1134016744 -0.2467838464
O   2.4080168185  1.1052139519 -0.0790873877
C  -1.7969755121 -1.1588428292  0.1027453900
H  -2.2137758340 -2.1587660953  0.3931635114
C  -0.4522952985 -1.1597959844 -0.1036709326
H  -0.0466661122 -2.1504627891 -0.2937245708
14
Step 33  E=-436.4566965064  phi=67.026  theta=73.038
C  -1.6476142737  1.4420358040  0.0772972397
C  -0.3241749858  1.1913503693  0.0297043051
C   0.1525530510  0.0019790671 -0.1608455364
C  -2.4708539461  0.2491382171  0.1275292996
H  -1.9375638305  2.4441427570  0.3511924294
H   0.3938199802  1.9548810527 -0.0326293990
H  -3.4778187289  0.6508717548 -0.0420299997
N   1.7432804822  0.0423509070 -0.2106795266
O   2.1612607718 -1.1172975516 -0.2592492247
O   2.4122084924  1.1039028023 -0.0841620151
C  -1.8081056654 -1.1506014423  0.1009136920
H  -2.1920359494 -2.1832528726  0.4037455084
C  -0.4531015143 -1.1596512336 -0.1040501899
H  -0.0263892402 -2.1061616740 -0.3172279069
14
Step 34  E=-436.4510085600  phi=67.356  theta=73.921
C  -1.6450205674  1.4597745499  0.0790785985
C  -0.3227001176  1.1891157537  0.0326335262
C   0.1561000240  0.0128399377 -0.1699606331
C  -2.4586157271  0.2461026530  0.1379288852
H  -1.9318170047  2.4382781394  0.3766978530
H   0.3937966693  1.9287498747 -0.0215761439
H  -3.4709686275  0.6632015429 -0.0452501179
N   1.7459519845  0.0377969420 -0.2103528282
O   2.1682730121 -1.1205146597 -0.2716963568
O   2.4158498351  1.1016817896 -0.0894443870
C  -1.8198559581 -1.1415186420  0.0993556713
H  -2.1720265881 -2.2000818230  0.4108511410
C  -0.4546682619 -1.1603578348 -0.1044847199
H  -0.0029439297 -2.0630726292 -0.3394739750
14
Step 35  E=-436.4449817427  phi=67.687  theta=74.794
C  -1.6427659462  1.4761707513  0.0811955211
C  -0.3215418389  1.1879317401  0.0354182065
C   0.1614522798  0.0235480613 -0.1791592617
C  -2.4460252758  0.2433321949  0.1481000299
H  -1.9296820429  2.4339066384  0.4004038093
H   0.3979640912  1.9088569225 -0.0094394063
H  -3.4646943063  0.6683476065 -0.0454427146
N   1.7486537340  0.0330454734 -0.2099159589
O   2.1754630314 -1.1230369600 -0.2841079605
O   2.4189333091  1.0985328953 -0.0949224903
C  -1.8319711034 -1.1318170082  0.0981013539
H  -2.1542013667 -2.2079539981  0.4141896680
C  -0.4570507424 -1.1613537769 -0.1049571316
H   0.0244775756 -2.0248311562 -0.3609772335
14
Step 36  E=-436.4411896047  phi=68.005  theta=75.647
C  -1.6407480823  1.4909265964  0.0836243848
C  -0.3208432356  1.1879193947  0.0380866914
C   0.1684785880  0.0336552426 -0.1884214333
C  -2.4332828511  0.2410165556  0.1579877023
H  -1.9315621062  2.4327682730  0.4228023915
H   0.4076661472  1.8969635836  0.0038039084
H  -3.4582080990  0.6658558949 -0.0422474738
N   1.7514080695  0.0281505989 -0.2094188573
O   2.1827991707 -1.1248604725 -0.2964672570
O   2.4214580560  1.0944485004 -0.1005826036
C  -1.8441819951 -1.1216898079  0.0971637966
H  -2.1392010028 -2.2061955861  0.4136584895
C  -0.4602644395 -1.1621501607 -0.1054581208
H   0.0564098338 -1.9941912201 -0.3822085680
14
Step 37  E=-436.4410141520  phi=68.299  theta=76.462
C  -1.6388900721  1.5038334982  0.0863484868
C  -0.3206350088  1.1892404693  0.0406600701
C   0.1770248610  0.0427801291 -0.1977202190
C  -2.4205725646  0.2393208407  0.1675449539
H  -1.9376221326  2.4358748772  0.4442544125
H   0.4231502823  1.8936640793  0.0182380059
H  -3.4509888042  0.6555507950 -0.0353729312
N   1.7542312002  0.0231661556 -0.2089120749
O   2.1902545020 -1.1259928050 -0.3087582180
O   2.4234300855  1.0894315762 -0.1064093474
C  -1.8562181188 -1.1112966095  0.0965403913
H  -2.1277903155 -2.1947427016  0.4093380739
C  -0.4642452597 -1.1624123636 -0.1060111487
H   0.0926164037 -1.9722733232 -0.4032848310
14
Step 38  E=-436.4437611535  phi=68.558  theta=77.220
C  -1.6371511220  1.5147937127  0.0893713354
C  -0.3208177123  1.1920879391  0.0431517393
C   0.1869149939  0.0506308294 -0.2070190988
C  -2.4080572803  0.2383818996  0.1767339910
H  -1.9477050539  2.4432716301  0.4648349565
H   0.4434239471  1.8983032709  0.0339587664
H  -3.4428082167  0.6375537900 -0.0246111296
N   1.7571329918  0.0181437500 -0.2084466465
O   2.1978071686 -1.1264528273 -0.3209657994
O   2.4248623241  1.0834960390 -0.1123857341
C  -1.8678162671 -1.1007558200  0.0962136441
H  -2.1208135437 -2.1741500702  0.4014887089
C  -0.4688263140 -1.1619825605 -0.1066870879
H   0.1317937518 -1.9584299839 -0.4237758329
14
Step 39  E=-436.4475092824  phi=68.776  theta=77.898
C  -1.6355293507  1.5238185959  0.0927223644
C  -0.3211817583  1.1966488884  0.0455687840
C   0.1979506843  0.0570166172 -0.2162696567
C  -2.3958745851  0.2383061842  0.1855267681
H  -1.9613164430  2.4540593136  0.4842710553
H   0.4665266545  1.9092900489  0.0510058035
H  -3.4337405702  0.6122840397 -0.0098453113
N   1.7601165809  0.0131310048 -0.2080739102
O   2.2054405306 -1.1262703756 -0.3330761803
O   2.4257747496  1.0766672277 -0.1184932288
C  -1.8787247215 -1.0901343169  0.0961508838
H  -2.1191674497 -2.1456352392  0.3905527502
C  -0.4737528335 -1.1608378270 -0.1075964576
H   0.1717249488 -1.9508000161 -0.4427784301
14
Step 40  E=-436.4505828451  phi=68.950  theta=78.475
C  -1.6340559176  1.5310048841  0.0964526094
C  -0.3214516340  1.2030594074  0.0479128480
C   0.2099117426  0.0618487787 -0.2254103427
C  -2.3841335932  0.2391687132  0.1939052816
H  -1.9776884062  2.4666638368  0.5020003053
H   0.4900450934  1.9246063508  0.0693155929
H  -3.4241613395  0.5804440848  0.0089482151
N   1.7631778749  0.0081696745 -0.2078452379
O   2.2131432896 -1.1254859136 -0.3450769683
O   2.4261945129  1.0689826414 -0.1247118510
C  -1.8887036185 -1.0794359480  0.0963032502
H  -2.1237879554 -2.1111410560  0.3771580888
C  -0.4787268035 -1.1590222254 -0.1088649743
H   0.2097818762 -1.9471214248 -0.4591854771
14
Step 41  E=-436.4523781989  phi=69.081  theta=78.929
C  -1.6327831037  1.5365004355  0.1006234789
C  -0.3213325128  1.2113736199  0.0501797276
C   0.2225588225  0.0651320870 -0.2343669509
C  -2.3729133489  0.2410133485  0.2018613912
H  -1.9958953552  2.4792208744  0.5173121189
H   0.5116068356  1.9422615045  0.0887136027
H  -3.4147262350  0.5429874341  0.0317057803
N   1.7663050969  0.0032939362 -0.2078116318
O   2.2209079674 -1.1241505091 -0.3569573311
O   2.4261558037  1.0604928495 -0.1310203242
C  -1.8975229764 -1.0685939139  0.0966054603
H  -2.1356419057 -2.0733569624  0.3621064443
C  -0.4834551804 -1.1565944602 -0.1106085475
H   0.2434320927 -1.9453515783 -0.4719615272
14
Step 42  E=-436.4534594656  phi=69.171  theta=79.248
C  -1.6317703887  1.5404723464  0.1052943328
C  -0.3205460835  1.2215551292  0.0523586104
C   0.2356389249  0.0669495532 -0.2430549012
C  -2.3622655207  0.2438553970  0.2093959238
H  -2.0149780579  2.4899279813  0.5295030507
H   0.5292016063  1.9605691775  0.1089360334
H  -3.4063079650  0.5010613016  0.0582931767
N   1.7694787517 -0.0014719652 -0.2080232980
O   2.2287312734 -1.1223249086 -0.3687080708
O   2.4256998008  1.0512625443 -0.1373962364
C  -1.9049608981 -1.0574780014  0.0969790951
H  -2.1557058783 -2.0355814975  0.3463163695
C  -0.4876816587 -1.1536036820 -0.1129179908
H   0.2705764397 -1.9439419144 -0.4803087296
14
Step 43  E=-436.4552767420  phi=69.225  theta=79.425
C  -1.6310714947  1.5430846375  0.1105129948
C  -0.3188542324  1.2334862867  0.0544321525
C   0.2488931640  0.0674437753 -0.2513829002
C  -2.3522239560  0.2476869020  0.2165170118
H  -2.0340440292  2.4972854394  0.5379965034
H   0.5413243455  1.9782618642  0.1296635344
H  -3.3998629079  0.4559257128  0.0885340990
N   1.7726718644 -0.0061157762 -0.2085291308
O   2.2366125358 -1.1200788208 -0.3803217066
O   2.4248743550  1.0413714942 -0.1438161831