&FCI NORB=11,NELEC=0,MS2=0
ORBSYM=1,1,1,1,
ISYM=1,
/
     -1.02313193362448809007e-03 	 1 1 1 1
      5.09324354244702730277e-03 	 1 2 1 1
     -2.49894911696092389408e-03 	 1 3 1 1
      3.28202909760750855678e-03 	 1 4 1 1
     -1.71953413007844366917e-03 	 1 5 1 1
     -1.09155652403171107324e-03 	 1 6 1 1
      3.79052755315389955371e-03 	 1 7 1 1
     -1.00012482313555973491e-04 	 1 8 1 1
     -8.88683612229810280560e-06 	 1 9 1 1
      7.26990401244943969250e-03 	 1 10 1 1
      5.15084952038572831123e-03 	 1 11 1 1
      5.09324354244702556804e-03 	 2 1 1 1
      7.81964985548484065037e-02 	 2 2 1 1
      1.17113271875468735392e-03 	 2 3 1 1
     -1.13367813309678874129e-02 	 2 4 1 1
      7.24683017473317286349e-07 	 2 5 1 1
      2.01998388302479861545e-03 	 2 6 1 1
     -3.15280562346446002406e-03 	 2 7 1 1
     -3.01579807828405250733e-03 	 2 8 1 1
      3.13645108147526290379e-03 	 2 9 1 1
     -6.64753723600244698921e-03 	 2 10 1 1
     -3.84573674819571132213e-03 	 2 11 1 1
     -2.49894911696092519512e-03 	 3 1 1 1
      1.17113271875468800444e-03 	 3 2 1 1
      1.03133003523339886187e-01 	 3 3 1 1
      4.35153836808368880973e-03 	 3 4 1 1
     -6.08838750770424670840e-04 	 3 5 1 1
      2.93990461543004255943e-03 	 3 6 1 1
      4.82430298077924420846e-03 	 3 7 1 1
      2.21646858986268438865e-03 	 3 8 1 1
      6.72908599470075198881e-04 	 3 9 1 1
      3.07416708585108193127e-03 	 3 10 1 1
      3.66096104639043349802e-03 	 3 11 1 1
      3.28202909760750421997e-03 	 4 1 1 1
     -1.13367813309678978212e-02 	 4 2 1 1
      4.35153836808369227918e-03 	 4 3 1 1
      3.88338148486022660677e-02 	 4 4 1 1
     -5.42586366039198475693e-04 	 4 5 1 1
     -2.32051519747313418976e-03 	 4 6 1 1
     -1.03037945331390067005e-02 	 4 7 1 1
     -3.31482263163391903393e-03 	 4 8 1 1
     -1.94185005477127525363e-04 	 4 9 1 1
     -4.17378821079433283414e-03 	 4 10 1 1
     -5.94372695163165876142e-03 	 4 11 1 1
     -1.71953413007844453653e-03 	 5 1 1 1
      7.24683017473566949311e-07 	 5 2 1 1
     -6.08838750770424670840e-04 	 5 3 1 1
     -5.42586366039197391491e-04 	 5 4 1 1
     -7.14250312293109035355e-02 	 5 5 1 1
      2.41460768115845243438e-04 	 5 6 1 1
     -3.59596103400256568612e-04 	 5 7 1 1
      1.00019854777515324745e-03 	 5 8 1 1
      1.38269446209719943947e-04 	 5 9 1 1
      6.84241794481329828823e-04 	 5 10 1 1
     -2.93812860028907382151e-05 	 5 11 1 1
     -1.09155652403171172377e-03 	 6 1 1 1
      2.01998388302480035017e-03 	 6 2 1 1
      2.93990461543003952366e-03 	 6 3 1 1
     -2.32051519747313592448e-03 	 6 4 1 1
      2.41460768115846652901e-04 	 6 5 1 1
      7.54972418572916470492e-02 	 6 6 1 1
     -7.77707396813782318029e-03 	 6 7 1 1
     -5.15968257492381825874e-03 	 6 8 1 1
     -3.45424507146913344763e-03 	 6 9 1 1
     -1.17257702953876027756e-03 	 6 10 1 1
     -6.42037525047143686069e-03 	 6 11 1 1
      3.79052755315389998739e-03 	 7 1 1 1
     -3.15280562346445872302e-03 	 7 2 1 1
      4.82430298077924420846e-03 	 7 3 1 1
     -1.03037945331389980269e-02 	 7 4 1 1
     -3.59596103400257544394e-04 	 7 5 1 1
     -7.77707396813782057821e-03 	 7 6 1 1
      6.70038866819666471299e-04 	 7 7 1 1
      4.18768502854184512113e-03 	 7 8 1 1
     -5.45452598568759057518e-03 	 7 9 1 1
     -2.27759174899922270385e-03 	 7 10 1 1
     -1.34267579502861111873e-02 	 7 11 1 1
     -1.00012482313554577581e-04 	 8 1 1 1
     -3.01579807828405120629e-03 	 8 2 1 1
      2.21646858986268395497e-03 	 8 3 1 1
     -3.31482263163393377908e-03 	 8 4 1 1
      1.00019854777515476534e-03 	 8 5 1 1
     -5.15968257492382172819e-03 	 8 6 1 1
      4.18768502854183818224e-03 	 8 7 1 1
      3.93273152811511872429e-02 	 8 8 1 1
     -3.77283383943061547197e-03 	 8 9 1 1
     -4.87753875014112527053e-03 	 8 10 1 1
     -5.92070609363189994875e-04 	 8 11 1 1
     -8.88683612229686952563e-06 	 9 1 1 1
      3.13645108147523167877e-03 	 9 2 1 1
      6.72908599470076716764e-04 	 9 3 1 1
     -1.94185005477131320071e-04 	 9 4 1 1
      1.38269446209719212111e-04 	 9 5 1 1
     -3.45424507146913171290e-03 	 9 6 1 1
     -5.45452598568759751407e-03 	 9 7 1 1
     -3.77283383943061547197e-03 	 9 8 1 1
      1.17266511377301776986e-01 	 9 9 1 1
     -2.01621406544590878879e-03 	 9 10 1 1
     -6.10329457347020664509e-03 	 9 11 1 1
      7.26990401244944489667e-03 	 10 1 1 1
     -6.64753723600244005032e-03 	 10 2 1 1
      3.07416708585108236496e-03 	 10 3 1 1
     -4.17378821079433023206e-03 	 10 4 1 1
      6.84241794481334816153e-04 	 10 5 1 1
     -1.17257702953876548173e-03 	 10 6 1 1
     -2.27759174899921880073e-03 	 10 7 1 1
     -4.87753875014113047470e-03 	 10 8 1 1
     -2.01621406544591269192e-03 	 10 9 1 1
     -2.46319177999483260311e-02 	 10 10 1 1
     -4.16621011030421373178e-03 	 10 11 1 1
      5.15084952038573004596e-03 	 11 1 1 1
     -3.84573674819570655165e-03 	 11 2 1 1
      3.66096104639043219697e-03 	 11 3 1 1
     -5.94372695163167263921e-03 	 11 4 1 1
     -2.93812860028886646785e-05 	 11 5 1 1
     -6.42037525047143772805e-03 	 11 6 1 1
     -1.34267579502861111873e-02 	 11 7 1 1
     -5.92070609363189344354e-04 	 11 8 1 1
     -6.10329457347020404301e-03 	 11 9 1 1
     -4.16621011030420766025e-03 	 11 10 1 1
     -3.14150891318905420985e-03 	 11 11 1 1
      0.00000000000000000000e+00 	 0 0 0 0
