&FCI NORB=9,NELEC=0,MS2=0
ORBSYM=1,1,1,1,
ISYM=1,
/
      3.98520784007707518093e-01 	 1 1 1 1
     -5.25395477168413404384e-04 	 1 1 2 1
      1.67396011609624834060e-01 	 1 1 2 2
     -4.55150484865153841935e-03 	 1 1 3 1
     -1.91812485762509637478e-03 	 1 1 3 2
      2.29497766979428224898e-01 	 1 1 3 3
      5.73348061021253761760e-03 	 1 1 4 1
     -7.96689930172340683538e-04 	 1 1 4 2
      7.34748970643908476397e-04 	 1 1 4 3
      1.52233340085842272504e-01 	 1 1 4 4
     -1.27837064235053754491e-02 	 1 1 5 1
      3.40610942282848234292e-03 	 1 1 5 2
     -1.99133663238432742984e-03 	 1 1 5 3
     -2.49383414157764143199e-03 	 1 1 5 4
      1.82399681682240855096e-01 	 1 1 5 5
     -4.37666575904891146792e-03 	 1 1 6 1
      2.23160579655295706128e-03 	 1 1 6 2
      2.45204405422371971013e-03 	 1 1 6 3
      3.60646328358349844544e-04 	 1 1 6 4
      3.15405027875360855980e-03 	 1 1 6 5
      2.01818450181319164471e-01 	 1 1 6 6
     -2.25577423871533948307e-03 	 1 1 7 1
      1.19903062600684056672e-03 	 1 1 7 2
      3.04793963314348517486e-05 	 1 1 7 3
     -7.78961888862074024881e-03 	 1 1 7 4
      2.52365305495642596248e-03 	 1 1 7 5
      1.57103869622226438064e-03 	 1 1 7 6
      1.74365591469054809215e-01 	 1 1 7 7
     -9.27170499027571079487e-03 	 1 1 8 1
      1.33675287971510379365e-03 	 1 1 8 2
     -1.93036480185614480257e-03 	 1 1 8 3
     -3.65420180900162940105e-04 	 1 1 8 4
      8.43402409341710741775e-03 	 1 1 8 5
      1.13425491374019426355e-02 	 1 1 8 6
      4.47513688613245441596e-04 	 1 1 8 7
      2.09090842317884523238e-01 	 1 1 8 8
      2.69515371558288509279e-03 	 1 1 9 1
     -1.79314527876149576967e-03 	 1 1 9 2
      3.55823788906049981798e-03 	 1 1 9 3
      1.46217097739889515841e-03 	 1 1 9 4
     -3.54537959137463673867e-03 	 1 1 9 5
     -5.57336824867371138231e-03 	 1 1 9 6
     -3.39813247197320433129e-03 	 1 1 9 7
     -2.48834991383534587933e-03 	 1 1 9 8
      2.62724759615048875094e-01 	 1 1 9 9
     -5.25395477168423053783e-04 	 2 1 1 1
      7.89747035896003982819e-04 	 2 1 2 1
     -4.86897718479027425548e-03 	 2 1 2 2
      9.42189604550432712479e-06 	 2 1 3 1
      7.16094301355250559792e-06 	 2 1 3 2
      5.67851572406196346277e-03 	 2 1 3 3
     -1.55771377632314087522e-04 	 2 1 4 1
      1.09138678753131632615e-04 	 2 1 4 2
     -5.32774877603272146407e-06 	 2 1 4 3
     -4.91497231252018603603e-03 	 2 1 4 4
      1.27623011604403825345e-03 	 2 1 5 1
      2.42451270513648672184e-04 	 2 1 5 2
      5.24593214721796126301e-05 	 2 1 5 3
     -1.16672720146639773511e-04 	 2 1 5 4
      1.28383126590860398124e-03 	 2 1 5 5
      2.67410196101017249865e-04 	 2 1 6 1
      2.57293652547965605044e-04 	 2 1 6 2
     -3.64299929299345147718e-05 	 2 1 6 3
      4.76462346975911117024e-05 	 2 1 6 4
     -5.46065374295289041669e-05 	 2 1 6 5
     -2.50875114889570634789e-04 	 2 1 6 6
      2.60455080430405160139e-04 	 2 1 7 1
     -1.09558861598104288000e-04 	 2 1 7 2
      1.45848255273299697894e-05 	 2 1 7 3
     -2.54987560831555488787e-04 	 2 1 7 4
      2.90711402854158156364e-04 	 2 1 7 5
      1.57642489658975820969e-04 	 2 1 7 6
     -2.71475975024036697558e-03 	 2 1 7 7
      8.37931355460073252171e-04 	 2 1 8 1
      1.51979270032407841242e-04 	 2 1 8 2
     -3.08612409722408540295e-05 	 2 1 8 3
      4.26517919236337950313e-05 	 2 1 8 4
      4.06049759783285075816e-04 	 2 1 8 5
      3.15910222343166152258e-04 	 2 1 8 6
     -3.96100251762149152047e-05 	 2 1 8 7
      1.15435620917615495810e-03 	 2 1 8 8
     -8.14814730281379065099e-04 	 2 1 9 1
      3.21381813311596216832e-04 	 2 1 9 2
      4.79073351771065427578e-05 	 2 1 9 3
     -3.30719334082019416222e-04 	 2 1 9 4
     -7.53018940851616497278e-04 	 2 1 9 5
     -3.59517601392499283521e-04 	 2 1 9 6
     -1.90916060688184579912e-04 	 2 1 9 7
     -6.57100858218112441646e-04 	 2 1 9 8
     -1.42240325819866148850e-03 	 2 1 9 9
      1.67396011609624695282e-01 	 2 2 1 1
     -4.86897718479027512284e-03 	 2 2 2 1
      4.54846465436402780380e-01 	 2 2 2 2
     -9.98775944065088180229e-04 	 2 2 3 1
      1.33813566320087665683e-03 	 2 2 3 2
      1.06223215889543656787e-01 	 2 2 3 3
      4.94289248876150777434e-03 	 2 2 4 1
      1.22184955542874130671e-03 	 2 2 4 2
     -1.06118502946160445967e-03 	 2 2 4 3
      4.36330521184669195556e-01 	 2 2 4 4
     -7.62001660615240026392e-03 	 2 2 5 1
     -7.05399374725420788557e-03 	 2 2 5 2
     -6.08222952558826147548e-04 	 2 2 5 3
      8.23692906540194474951e-03 	 2 2 5 4
      1.29045350225790028675e-01 	 2 2 5 5
     -2.23261243787809026198e-03 	 2 2 6 1
     -3.65836941687555433286e-03 	 2 2 6 2
      7.98283315584287001855e-04 	 2 2 6 3
     -2.00232254579248191220e-03 	 2 2 6 4
      9.72530917885784402382e-04 	 2 2 6 5
      1.80245889642139445197e-01 	 2 2 6 6
     -8.74998238249265550270e-03 	 2 2 7 1
     -5.79525784017579422697e-03 	 2 2 7 2
      1.05510309346878755794e-03 	 2 2 7 3
      2.30032579438758343071e-02 	 2 2 7 4
     -8.95018183827796763585e-03 	 2 2 7 5
     -5.21951765480203975361e-03 	 2 2 7 6
      3.50454464563694556567e-01 	 2 2 7 7
     -4.01564448224184938896e-03 	 2 2 8 1
     -2.19645891045467745242e-03 	 2 2 8 2
      1.11424538270172895828e-04 	 2 2 8 3
     -6.82663945113847620005e-03 	 2 2 8 4
     -2.93865341420953371141e-05 	 2 2 8 5
     -1.72532373184864154525e-03 	 2 2 8 6
      6.27526576179585418580e-03 	 2 2 8 7
      1.19685867748288668477e-01 	 2 2 8 8
      6.42416519895442489352e-03 	 2 2 9 1
      6.34745020937586314214e-03 	 2 2 9 2
      8.69658882502104746068e-04 	 2 2 9 3
      1.77181819090130344974e-02 	 2 2 9 4
      8.19077624413544307103e-03 	 2 2 9 5
      2.51483631284476040826e-03 	 2 2 9 6
     -7.55654861563450274894e-04 	 2 2 9 7
      1.19876690487153766268e-02 	 2 2 9 8
      2.43591155354074800909e-01 	 2 2 9 9
     -4.55150484865153408254e-03 	 3 1 1 1
      9.42189604550466932610e-06 	 3 1 2 1
     -9.98775944065075386644e-04 	 3 1 2 2
      5.32437437988706168540e-03 	 3 1 3 1
      6.17815765449326718441e-04 	 3 1 3 2
      3.06230571638916541227e-03 	 3 1 3 3
     -1.85401357541794317013e-04 	 3 1 4 1
      3.45870908510294398591e-06 	 3 1 4 2
     -2.87446453680680600630e-04 	 3 1 4 3
     -6.44837197565120397516e-04 	 3 1 4 4
      7.25183738360024067460e-04 	 3 1 5 1
     -1.64768745212207854511e-06 	 3 1 5 2
      4.08544133790344522750e-03 	 3 1 5 3
     -7.40065655219371228190e-05 	 3 1 5 4
      1.38834140479403007722e-03 	 3 1 5 5
      5.45098269808093989150e-04 	 3 1 6 1
      1.51491361574507873294e-04 	 3 1 6 2
      1.96346929551902675158e-04 	 3 1 6 3
     -5.09071721690035537103e-05 	 3 1 6 4
     -3.16532918134307430223e-05 	 3 1 6 5
      6.48579080741784716642e-04 	 3 1 6 6
      1.81923156251246004398e-04 	 3 1 7 1
      7.57498742942738420830e-05 	 3 1 7 2
      3.86477781840247741878e-04 	 3 1 7 3
      9.70799578559802795298e-05 	 3 1 7 4
      6.50198607753372338292e-05 	 3 1 7 5
      1.89162843051879245261e-04 	 3 1 7 6
     -8.38452790744505845749e-04 	 3 1 7 7
      5.35217909711182843885e-04 	 3 1 8 1
      1.33572816615948271367e-04 	 3 1 8 2
      1.82605493385575002284e-03 	 3 1 8 3
      3.19210524058803976491e-05 	 3 1 8 4
     -2.21124154110823609252e-04 	 3 1 8 5
      4.94220475157508237047e-05 	 3 1 8 6
      4.52175112818802477132e-05 	 3 1 8 7
      4.54017992250636305551e-03 	 3 1 8 8
     -2.33033710820938598377e-04 	 3 1 9 1
     -1.98481504705750661692e-04 	 3 1 9 2
     -2.33578415970410327787e-03 	 3 1 9 3
     -4.35092751707425690424e-05 	 3 1 9 4
     -2.50435057926826716481e-04 	 3 1 9 5
     -5.13575903420412753497e-04 	 3 1 9 6
     -3.84029836175499072809e-05 	 3 1 9 7
     -1.05298178659429759801e-04 	 3 1 9 8
     -2.19422954732066992009e-03 	 3 1 9 9
     -1.91812485762510331368e-03 	 3 2 1 1
      7.16094301355196857903e-06 	 3 2 2 1
      1.33813566320087448842e-03 	 3 2 2 2
      6.17815765449328561584e-04 	 3 2 3 1
      3.53542421343050223149e-04 	 3 2 3 2
      5.07400986277526378746e-05 	 3 2 3 3
     -3.84501650204249095007e-06 	 3 2 4 1
     -4.42874148164233894963e-05 	 3 2 4 2
      9.49908731468780524482e-05 	 3 2 4 3
     -2.39645563345014354787e-04 	 3 2 4 4
      2.35426472771309790687e-04 	 3 2 5 1
     -7.04328220220923686967e-05 	 3 2 5 2
      6.41863237139593772844e-04 	 3 2 5 3
      1.28058634205928726073e-05 	 3 2 5 4
     -1.03938505854854089036e-03 	 3 2 5 5
      1.50689893788464701185e-04 	 3 2 6 1
     -3.85731101578586698460e-05 	 3 2 6 2
      3.34287560603342128948e-04 	 3 2 6 3
      1.21986914693007704501e-04 	 3 2 6 4
     -7.29119384581741476325e-05 	 3 2 6 5
     -1.10230792589411014971e-03 	 3 2 6 6
      8.24978120638403998816e-05 	 3 2 7 1
     -2.31884761131008715167e-05 	 3 2 7 2
      3.45180732588860287452e-04 	 3 2 7 3
      4.98555239404173161817e-04 	 3 2 7 4
     -1.73773311206908121461e-04 	 3 2 7 5
      4.76249367737885891767e-05 	 3 2 7 6
      4.45636419162282436390e-03 	 3 2 7 7
      2.44373872816505417326e-04 	 3 2 8 1
     -4.32657377040471206463e-05 	 3 2 8 2
      3.05809755103052932895e-04 	 3 2 8 3
     -2.02713522703558735624e-05 	 3 2 8 4
      2.86131188356971440480e-05 	 3 2 8 5
     -1.00677304366611082543e-04 	 3 2 8 6
      6.61533618157243827242e-05 	 3 2 8 7
     -9.44542657000195929988e-04 	 3 2 8 8
     -1.70068461229767132819e-04 	 3 2 9 1
     -1.92324756877963647995e-05 	 3 2 9 2
     -5.16550847562157453875e-04 	 3 2 9 3
     -2.35031710467289891697e-04 	 3 2 9 4
     -9.37007845209097842360e-05 	 3 2 9 5
      1.32866740934583745567e-04 	 3 2 9 6
     -3.86170287625683440486e-04 	 3 2 9 7
      4.71237374160542949798e-05 	 3 2 9 8
     -6.98258446675446191668e-04 	 3 2 9 9
      2.29497766979428113876e-01 	 3 3 1 1
      5.67851572406195912596e-03 	 3 3 2 1
      1.06223215889543601276e-01 	 3 3 2 2
      3.06230571638918406055e-03 	 3 3 3 1
      5.07400986277527598473e-05 	 3 3 3 2
      4.56495416466519754461e-01 	 3 3 3 3
     -2.16750402202947481736e-03 	 3 3 4 1
      6.55496016574725194441e-04 	 3 3 4 2
     -8.08884344817545016849e-04 	 3 3 4 3
      1.03662310668536650216e-01 	 3 3 4 4
      3.61116123943421851727e-02 	 3 3 5 1
      7.47981882732390301882e-03 	 3 3 5 2
      6.81415737713930952206e-04 	 3 3 5 3
     -2.22077192432702102964e-03 	 3 3 5 4
      1.88669202144828102030e-01 	 3 3 5 5
      4.15926575333745284641e-03 	 3 3 6 1
      3.84538821028852133635e-03 	 3 3 6 2
     -8.46014714541803406096e-04 	 3 3 6 3
      3.94002139849512883463e-05 	 3 3 6 4
     -3.01007612587286593406e-03 	 3 3 6 5
      1.58885573481830383313e-01 	 3 3 6 6
      4.22390085120721240491e-03 	 3 3 7 1
      3.86763692684906562960e-03 	 3 3 7 2
      6.13487299145834964580e-04 	 3 3 7 3
     -1.59494587928989692630e-03 	 3 3 7 4
      8.77578079272281312562e-03 	 3 3 7 5
      5.83225851230788697177e-03 	 3 3 7 6
      1.16756743668430043592e-01 	 3 3 7 7
      2.12567931592424347320e-02 	 3 3 8 1
      3.62947901353853370071e-03 	 3 3 8 2
     -3.64904034910372475700e-03 	 3 3 8 3
     -1.28918433527414554550e-03 	 3 3 8 4
      1.49499158700070102629e-02 	 3 3 8 5
      1.38699420700144661345e-02 	 3 3 8 6
     -5.34493227188319664010e-05 	 3 3 8 7
      2.11715862364016044195e-01 	 3 3 8 8
     -2.22516646442721260923e-02 	 3 3 9 1
     -6.31175514695854391473e-03 	 3 3 9 2
      1.34172140439501414930e-03 	 3 3 9 3
     -1.74368756636453258770e-03 	 3 3 9 4
     -2.83029388466788552059e-02 	 3 3 9 5
     -1.11763339865314972194e-02 	 3 3 9 6
     -5.91916254665671506818e-03 	 3 3 9 7
     -1.58082376438322541601e-02 	 3 3 9 8
      1.64374649151448476436e-01 	 3 3 9 9
      5.73348061021251680092e-03 	 4 1 1 1
     -1.55771377632315822246e-04 	 4 1 2 1
      4.94289248876152251949e-03 	 4 1 2 2
     -1.85401357541796729363e-04 	 4 1 3 1
     -3.84501650204353195357e-06 	 4 1 3 2
     -2.16750402202947134792e-03 	 4 1 3 3
      1.10156891721207303783e-03 	 4 1 4 1
     -2.80141070810646761365e-04 	 4 1 4 2
      2.75986074101941356192e-05 	 4 1 4 3
      3.52736436658444754005e-03 	 4 1 4 4
     -1.16923697898120354174e-03 	 4 1 5 1
     -7.97074863541145619194e-05 	 4 1 5 2
     -1.40291421932322294590e-04 	 4 1 5 3
      1.96358709988347864038e-04 	 4 1 5 4
      2.14406429442616660273e-04 	 4 1 5 5
     -4.82162555840169365553e-04 	 4 1 6 1
     -6.37943905646844411058e-05 	 4 1 6 2
      1.04504917311056379561e-04 	 4 1 6 3
      5.94314750260781861531e-04 	 4 1 6 4
      1.28399999074923988791e-04 	 4 1 6 5
      2.87194044777302516513e-03 	 4 1 6 6
     -8.28705136801776397204e-04 	 4 1 7 1
     -1.07115645824101073081e-04 	 4 1 7 2
      6.33417823915681743813e-05 	 4 1 7 3
     -2.29566335555600681620e-03 	 4 1 7 4
     -4.28942492358535859727e-04 	 4 1 7 5
     -4.42232990705447234769e-04 	 4 1 7 6
      8.69794948090707280286e-03 	 4 1 7 7
     -7.15034135267821925608e-04 	 4 1 8 1
     -6.22090243451135717530e-05 	 4 1 8 2
      7.96402610112550087751e-07 	 4 1 8 3
     -2.81063127426654259505e-04 	 4 1 8 4
     -3.58605556590933349358e-05 	 4 1 8 5
     -5.40765339335531818412e-05 	 4 1 8 6
      4.03541381856513034759e-04 	 4 1 8 7
     -6.52222687993866674476e-04 	 4 1 8 8
      4.93614867123786044481e-04 	 4 1 9 1
      2.83148397562625846050e-05 	 4 1 9 2
      1.59748507023779056941e-04 	 4 1 9 3
     -6.69417866039984901967e-04 	 4 1 9 4
      5.73502168234643486602e-04 	 4 1 9 5
      3.51495598841154678268e-04 	 4 1 9 6
      5.77361339965108314549e-05 	 4 1 9 7
      9.82102828471249390818e-04 	 4 1 9 8
      8.42150251762720063187e-03 	 4 1 9 9
     -7.96689930172328757314e-04 	 4 2 1 1
      1.09138678753131415774e-04 	 4 2 2 1
      1.22184955542874065619e-03 	 4 2 2 2
      3.45870908510367031666e-06 	 4 2 3 1
     -4.42874148164237079806e-05 	 4 2 3 2
      6.55496016574720098691e-04 	 4 2 3 3
     -2.80141070810647195045e-04 	 4 2 4 1
      1.63127021277734707283e-02 	 4 2 4 2
     -1.14593506978773122915e-04 	 4 2 4 3
      1.44132847257312231119e-03 	 4 2 4 4
      2.41345430084835462772e-04 	 4 2 5 1
      3.61810910410246709332e-04 	 4 2 5 2
      1.94004403364958907731e-05 	 4 2 5 3
     -2.96167688415920310040e-04 	 4 2 5 4
     -3.09095128349335507810e-04 	 4 2 5 5
      5.21196463205603988610e-05 	 4 2 6 1
     -2.16606065342191204384e-04 	 4 2 6 2
     -3.80867501371708956742e-06 	 4 2 6 3
     -1.23096991638329937308e-04 	 4 2 6 4
     -8.25591357110000618504e-05 	 4 2 6 5
     -7.13819239158713968532e-04 	 4 2 6 6
     -3.72071877881418935636e-05 	 4 2 7 1
      2.45190240881114481994e-03 	 4 2 7 2
      7.06516085917011755439e-05 	 4 2 7 3
     -1.89418577284425389685e-05 	 4 2 7 4
     -2.00443611245661736607e-05 	 4 2 7 5
     -9.45287471286886013229e-05 	 4 2 7 6
      6.84249515973250400404e-04 	 4 2 7 7
      1.35331326276098352131e-04 	 4 2 8 1
     -1.10319195621421390469e-04 	 4 2 8 2
      4.62957879524551329798e-06 	 4 2 8 3
     -3.89850231116895508334e-05 	 4 2 8 4
      6.29333165146388955145e-05 	 4 2 8 5
     -1.11171808626472452743e-05 	 4 2 8 6
     -5.55385473838760352467e-05 	 4 2 8 7
     -4.58116527585763707881e-04 	 4 2 8 8
     -2.22053564650413309519e-04 	 4 2 9 1
      2.51579342666553417568e-03 	 4 2 9 2
      4.81583344990022226961e-05 	 4 2 9 3
      4.02239939378362188274e-04 	 4 2 9 4
     -9.23253499509806366003e-05 	 4 2 9 5
     -1.34982858513783897207e-04 	 4 2 9 6
      4.48821354275130503827e-05 	 4 2 9 7
     -1.56101749581924784767e-04 	 4 2 9 8
     -5.46927365780469610344e-04 	 4 2 9 9
      7.34748970643905982732e-04 	 4 3 1 1
     -5.32774877603215310496e-06 	 4 3 2 1
     -1.06118502946160727859e-03 	 4 3 2 2
     -2.87446453680681739042e-04 	 4 3 3 1
      9.49908731468780660008e-05 	 4 3 3 2
     -8.08884344817550437860e-04 	 4 3 3 3
      2.75986074101911201819e-05 	 4 3 4 1
     -1.14593506978772784102e-04 	 4 3 4 2
      3.87990979819807378821e-04 	 4 3 4 3
     -1.72666087281542570721e-03 	 4 3 4 4
     -1.58540989368539659947e-04 	 4 3 5 1
      2.50213127462616407605e-05 	 4 3 5 2
     -2.62598729688719883558e-05 	 4 3 5 3
     -5.82517596179877214491e-05 	 4 3 5 4
     -3.53019089049920367206e-04 	 4 3 5 5
     -1.97010029584719615313e-05 	 4 3 6 1
      7.63332821594264243137e-06 	 4 3 6 2
     -1.61564430994489473823e-04 	 4 3 6 3
      3.89932016640852019342e-05 	 4 3 6 4
      2.14831294101019623774e-06 	 4 3 6 5
     -2.10650674635638908688e-04 	 4 3 6 6
      3.35873104961802081895e-05 	 4 3 7 1
      7.54364916430174086825e-05 	 4 3 7 2
      2.77478387206878650013e-04 	 4 3 7 3
     -1.14490075009637034403e-04 	 4 3 7 4
     -2.69511644027312763892e-06 	 4 3 7 5
      2.35992114393949085980e-05 	 4 3 7 6
      4.02798936477977395319e-07 	 4 3 7 7
     -7.62823107470848014479e-05 	 4 3 8 1
     -6.90613748238899824406e-06 	 4 3 8 2
     -3.25187999335683000646e-04 	 4 3 8 3
      5.11607091845618224359e-05 	 4 3 8 4
      1.32808220402471704395e-05 	 4 3 8 5
      7.67810520203279415043e-05 	 4 3 8 6
     -2.86158153353836635074e-05 	 4 3 8 7
     -9.13017827555136956066e-04 	 4 3 8 8
      1.91033730799530874350e-04 	 4 3 9 1
     -3.02612404449458179698e-05 	 4 3 9 2
      4.30819481570018220345e-05 	 4 3 9 3
     -1.75274014467417799243e-04 	 4 3 9 4
      4.94966465237543006635e-05 	 4 3 9 5
      4.09115724068338885164e-05 	 4 3 9 6
     -6.07711307311708344089e-05 	 4 3 9 7
     -8.46053024164245649286e-05 	 4 3 9 8
     -3.67314411845677177542e-05 	 4 3 9 9
      1.52233340085842105971e-01 	 4 4 1 1
     -4.91497231252019384229e-03 	 4 4 2 1
      4.36330521184669473111e-01 	 4 4 2 2
     -6.44837197565102399760e-04 	 4 4 3 1
     -2.39645563345018881331e-04 	 4 4 3 2
      1.03662310668536553071e-01 	 4 4 3 3
      3.52736436658445664735e-03 	 4 4 4 1
      1.44132847257312925009e-03 	 4 4 4 2
     -1.72666087281542982718e-03 	 4 4 4 3
      5.45172367821962322587e-01 	 4 4 4 4
     -5.85687033004193054880e-03 	 4 4 5 1
     -6.83796060215443625430e-03 	 4 4 5 2
     -3.87629504684389343538e-04 	 4 4 5 3
      1.17538490152606298067e-02 	 4 4 5 4
      1.24678526334728784208e-01 	 4 4 5 5
     -1.40330281031813370804e-03 	 4 4 6 1
     -3.17156989638090434924e-03 	 4 4 6 2
      6.13792731855286599618e-04 	 4 4 6 3
     -5.72719296045056357192e-03 	 4 4 6 4
      2.25989847395790941680e-04 	 4 4 6 5
      1.73621685348155002648e-01 	 4 4 6 6
     -1.15471737908932527844e-02 	 4 4 7 1
     -5.05722097985992526115e-03 	 4 4 7 2
      6.39220525584040721520e-04 	 4 4 7 3
      2.00020027722803590831e-02 	 4 4 7 4
     -6.64342618282911644839e-03 	 4 4 7 5
     -7.81814798699633287105e-03 	 4 4 7 6
      2.87570686206270798024e-01 	 4 4 7 7
     -3.32530887971323099034e-03 	 4 4 8 1
     -1.19564884866420976378e-03 	 4 4 8 2
      8.81248045477704450464e-05 	 4 4 8 3
     -9.14207105906534450712e-03 	 4 4 8 4
     -4.82393119211629243636e-04 	 4 4 8 5
     -2.06028377933628907212e-03 	 4 4 8 6
      6.40799171083785042147e-03 	 4 4 8 7
      1.16696546582581758833e-01 	 4 4 8 8
      4.75432227399189000216e-03 	 4 4 9 1
      6.79233996643695617235e-03 	 4 4 9 2
      5.28370876189287043238e-04 	 4 4 9 3
      2.49316337897780536392e-02 	 4 4 9 4
      7.03703865702159751805e-03 	 4 4 9 5
      6.21913580842948913487e-04 	 4 4 9 6
      1.37376833110383535924e-02 	 4 4 9 7
      1.04153702497835048274e-02 	 4 4 9 8
      2.22817093828869661198e-01 	 4 4 9 9
     -1.27837064235053112643e-02 	 5 1 1 1
      1.27623011604403781977e-03 	 5 1 2 1
     -7.62001660615239939656e-03 	 5 1 2 2
      7.25183738360029813731e-04 	 5 1 3 1
      2.35426472771308164383e-04 	 5 1 3 2
      3.61116123943422268061e-02 	 5 1 3 3
     -1.16923697898121113116e-03 	 5 1 4 1
      2.41345430084838010647e-04 	 5 1 4 2
     -1.58540989368536732601e-04 	 5 1 4 3
     -5.85687033004190626267e-03 	 5 1 4 4
      1.38639637032305276104e-02 	 5 1 5 1
      1.55571032484399639911e-03 	 5 1 5 2
      3.77575572480642646274e-04 	 5 1 5 3
     -2.97274028631190612420e-04 	 5 1 5 4
     -2.38560151057144904929e-02 	 5 1 5 5
      1.50025542098866757242e-03 	 5 1 6 1
      6.56766871510380714598e-04 	 5 1 6 2
     -7.45651897474316604358e-04 	 5 1 6 3
     -1.35330784504021010665e-04 	 5 1 6 4
     -2.59092308917630411227e-03 	 5 1 6 5
     -1.29374118140949210393e-02 	 5 1 6 6
      1.16927969944230730585e-03 	 5 1 7 1
      4.45834794949023045449e-04 	 5 1 7 2
      2.99594515168455412528e-05 	 5 1 7 3
      5.77679708719235963411e-04 	 5 1 7 4
      2.09192170781519063208e-03 	 5 1 7 5
      1.18628795728067948367e-03 	 5 1 7 6
     -5.78647427197603175797e-03 	 5 1 7 7
      6.34048974907541491169e-03 	 5 1 8 1
      6.47255061618619395754e-04 	 5 1 8 2
     -7.02340343499614902165e-04 	 5 1 8 3
     -2.61387068238450232839e-04 	 5 1 8 4
      1.98926518783300396859e-03 	 5 1 8 5
      3.29152257026681625829e-03 	 5 1 8 6
      1.00854572022617621180e-04 	 5 1 8 7
     -4.67082799001375479492e-03 	 5 1 8 8
     -4.95388121383011879872e-03 	 5 1 9 1
     -1.08873320139784017686e-03 	 5 1 9 2
     -2.39650352902446818959e-04 	 5 1 9 3
     -5.26515260917163278181e-04 	 5 1 9 4
     -8.05747088051772530903e-03 	 5 1 9 5
     -2.47039306160322293809e-03 	 5 1 9 6
     -6.65100210118406247328e-04 	 5 1 9 7
     -3.71536448393637239174e-03 	 5 1 9 8
     -1.01777010849164947781e-02 	 5 1 9 9
      3.40610942282849969015e-03 	 5 2 1 1
      2.42451270513646774830e-04 	 5 2 2 1
     -7.05399374725420615084e-03 	 5 2 2 2
     -1.64768745212041878405e-06 	 5 2 3 1
     -7.04328220220920434361e-05 	 5 2 3 2
      7.47981882732389781465e-03 	 5 2 3 3
     -7.97074863541146703396e-05 	 5 2 4 1
      3.61810910410246329861e-04 	 5 2 4 2
      2.50213127462626809170e-05 	 5 2 4 3
     -6.83796060215444059111e-03 	 5 2 4 4
      1.55571032484399596543e-03 	 5 2 5 1
      6.81428239480907525435e-04 	 5 2 5 2
     -6.03815103030006853605e-05 	 5 2 5 3
     -2.29288541873890367199e-04 	 5 2 5 4
     -1.67876115402267175533e-03 	 5 2 5 5
      7.72449085841694568777e-05 	 5 2 6 1
      2.17694635107459834485e-04 	 5 2 6 2
     -3.12499955387097902394e-05 	 5 2 6 3
      2.91983420364246964432e-05 	 5 2 6 4
     -2.61292438199346103555e-04 	 5 2 6 5
     -1.07672402930679075861e-03 	 5 2 6 6
      2.68122996285504323465e-04 	 5 2 7 1
     -3.57548934894895656281e-05 	 5 2 7 2
     -2.93624737990715988650e-05 	 5 2 7 3
     -5.67987170234673195354e-04 	 5 2 7 4
      5.89474624387875049784e-04 	 5 2 7 5
      2.81580144829536951380e-04 	 5 2 7 6
     -5.36617901945425461452e-03 	 5 2 7 7
      6.58589672685056101362e-04 	 5 2 8 1
      1.19251204245420815478e-04 	 5 2 8 2
     -6.29524961758885190670e-05 	 5 2 8 3
      1.35847911554407262949e-04 	 5 2 8 4
      4.88927351932870110640e-04 	 5 2 8 5
      6.85098610053632805887e-04 	 5 2 8 6
     -1.37744473786613377386e-04 	 5 2 8 7
      8.59701964685376978162e-04 	 5 2 8 8
     -6.51561227143299006963e-04 	 5 2 9 1
     -9.43315139239679184254e-05 	 5 2 9 2
      4.12978490147973710924e-05 	 5 2 9 3
     -2.38259313748233580695e-04 	 5 2 9 4
     -1.25867439555913773579e-03 	 5 2 9 5
     -3.58217130194729267787e-04 	 5 2 9 6
     -2.21597870711146032645e-04 	 5 2 9 7
     -6.80318975914393528175e-04 	 5 2 9 8
      4.97316624596982350369e-04 	 5 2 9 9
     -1.99133663238430878156e-03 	 5 3 1 1
      5.24593214721787520446e-05 	 5 3 2 1
     -6.08222952558824304405e-04 	 5 3 2 2
      4.08544133790344089069e-03 	 5 3 3 1
      6.41863237139594206525e-04 	 5 3 3 2
      6.81415737713929759584e-04 	 5 3 3 3
     -1.40291421932322321695e-04 	 5 3 4 1
      1.94004403364966158333e-05 	 5 3 4 2
     -2.62598729688705653405e-05 	 5 3 4 3
     -3.87629504684392975616e-04 	 5 3 4 4
      3.77575572480643730476e-04 	 5 3 5 1
     -6.03815103030017018000e-05 	 5 3 5 2
      5.19930853573894857095e-03 	 5 3 5 3
     -2.61941668300158937537e-05 	 5 3 5 4
      2.49424058605371727279e-03 	 5 3 5 5
      7.94972072285957619651e-05 	 5 3 6 1
      8.53573426571192480153e-05 	 5 3 6 2
     -8.96725449600738926462e-04 	 5 3 6 3
     -2.95399754612311577320e-05 	 5 3 6 4
      5.84416990484997145002e-05 	 5 3 6 5
      7.11898014062439343612e-04 	 5 3 6 6
      5.51445426015147370058e-05 	 5 3 7 1
     -1.34219044615748229907e-05 	 5 3 7 2
      6.62030612891064914639e-04 	 5 3 7 3
     -9.88090531276296238708e-05 	 5 3 7 4
     -1.85266110546791275846e-05 	 5 3 7 5
      2.13518337581228410829e-05 	 5 3 7 6
     -9.79652991041224472518e-04 	 5 3 7 7
     -1.27055653490156135466e-04 	 5 3 8 1
      7.53246333312916253140e-05 	 5 3 8 2
      1.23621864642874004607e-03 	 5 3 8 3
      6.85139292076446254501e-05 	 5 3 8 4
     -2.47793168997011647135e-04 	 5 3 8 5
     -3.40216052553525126912e-04 	 5 3 8 6
      2.49607891593908482212e-05 	 5 3 8 7
      6.52246792911729492831e-03 	 5 3 8 8
     -6.37644947948160217138e-04 	 5 3 9 1
     -5.43696653665715529157e-05 	 5 3 9 2
     -2.76553626653407635602e-03 	 5 3 9 3
     -1.45115298684396730195e-05 	 5 3 9 4
      1.44441107126283573882e-04 	 5 3 9 5
     -2.38385664683034065228e-04 	 5 3 9 6
      4.14993773586926303931e-05 	 5 3 9 7
      6.03839095028465677045e-04 	 5 3 9 8
     -4.76568560776792808035e-04 	 5 3 9 9
     -2.49383414157756987464e-03 	 5 4 1 1
     -1.16672720146641684417e-04 	 5 4 2 1
      8.23692906540195689258e-03 	 5 4 2 2
     -7.40065655219396571415e-05 	 5 4 3 1
      1.28058634205936383251e-05 	 5 4 3 2
     -2.22077192432702883590e-03 	 5 4 3 3
      1.96358709988355534769e-04 	 5 4 4 1
     -2.96167688415921068982e-04 	 5 4 4 2
     -5.82517596179856885700e-05 	 5 4 4 3
      1.17538490152606211331e-02 	 5 4 4 4
     -2.97274028631187793494e-04 	 5 4 5 1
     -2.29288541873892129028e-04 	 5 4 5 2
     -2.61941668300177131804e-05 	 5 4 5 3
      5.69472735588768185985e-04 	 5 4 5 4
     -3.76134057389817264352e-05 	 5 4 5 5
     -1.06899908852591731131e-04 	 5 4 6 1
     -1.71180391073833497581e-04 	 5 4 6 2
     -1.69061955232701043852e-05 	 5 4 6 3
     -6.95111553979094307001e-05 	 5 4 6 4
      2.56028462896104756969e-05 	 5 4 6 5
      3.22601820881222205520e-04 	 5 4 6 6
     -4.17320139542324793688e-04 	 5 4 7 1
     -1.67911509465349301001e-04 	 5 4 7 2
      1.97285389017124814014e-05 	 5 4 7 3
      2.02860519999432963902e-04 	 5 4 7 4
     -2.89676745790464374320e-04 	 5 4 7 5
     -3.73155058209298127418e-04 	 5 4 7 6
      3.32523102759485532712e-03 	 5 4 7 7
     -7.81552783464075409006e-05 	 5 4 8 1
     -4.07568448222061976288e-05 	 5 4 8 2
      9.19877699155459210238e-05 	 5 4 8 3
     -3.49946140874890650966e-04 	 5 4 8 4
     -4.62810171664049276844e-05 	 5 4 8 5
     -3.43458238983623787791e-04 	 5 4 8 6
      2.76092635021247092067e-04 	 5 4 8 7
     -2.58857673745216138733e-03 	 5 4 8 8
      1.16453482751243092130e-04 	 5 4 9 1
      1.63140349439202874630e-04 	 5 4 9 2
     -1.98857295650737321286e-06 	 5 4 9 3
      6.70870837593833435793e-04 	 5 4 9 4
      2.89993157782425688140e-04 	 5 4 9 5
      3.56106895629915685703e-04 	 5 4 9 6
      5.13201147593440854498e-04 	 5 4 9 7
      5.72913055775277498503e-04 	 5 4 9 8
      1.78004896598875253337e-03 	 5 4 9 9
      1.82399681682240910607e-01 	 5 5 1 1
      1.28383126590861438958e-03 	 5 5 2 1
      1.29045350225789945409e-01 	 5 5 2 2
      1.38834140479403679927e-03 	 5 5 3 1
     -1.03938505854853655355e-03 	 5 5 3 2
      1.88669202144828046519e-01 	 5 5 3 3
      2.14406429442609721379e-04 	 5 5 4 1
     -3.09095128349346946143e-04 	 5 5 4 2
     -3.53019089049930179236e-04 	 5 5 4 3
      1.24678526334728548286e-01 	 5 5 4 4
     -2.38560151057145841680e-02 	 5 5 5 1
     -1.67876115402267479110e-03 	 5 5 5 2
      2.49424058605371250230e-03 	 5 5 5 3
     -3.76134057389251243056e-05 	 5 5 5 4
      3.80960653745860633457e-01 	 5 5 5 5
     -1.43691348149901920728e-03 	 5 5 6 1
      2.51731289055084609025e-05 	 5 5 6 2
     -1.13669071516528863083e-03 	 5 5 6 3
     -2.77326843371383194997e-04 	 5 5 6 4
      1.53211752282630623428e-02 	 5 5 6 5
      2.48575137330272755154e-01 	 5 5 6 6
      8.90031915072381045462e-04 	 5 5 7 1
      1.38287849372646849157e-03 	 5 5 7 2
     -1.89139595059238272909e-04 	 5 5 7 3
     -4.94178744817627430691e-03 	 5 5 7 4
     -2.72523324629334430871e-03 	 5 5 7 5
     -1.44377732264608761928e-03 	 5 5 7 6
      1.19277870087765316964e-01 	 5 5 7 7
     -1.90312822083540055494e-03 	 5 5 8 1
      6.45455112291099452823e-04 	 5 5 8 2
      1.06600214530660000745e-03 	 5 5 8 3
      4.02191787436291287201e-04 	 5 5 8 4
      4.33857339840475718373e-03 	 5 5 8 5
     -1.10538377679356425443e-02 	 5 5 8 6
     -1.60963839946072435937e-04 	 5 5 8 7
      2.60448658844110780830e-01 	 5 5 8 8
     -6.35079683421653756054e-03 	 5 5 9 1
     -1.10698584438772272033e-03 	 5 5 9 2
     -2.60768162301561331421e-04 	 5 5 9 3
      8.99568179769510479528e-04 	 5 5 9 4
      1.58792816896754819533e-02 	 5 5 9 5
      1.09563424433609156797e-03 	 5 5 9 6
     -1.34418051222359074062e-03 	 5 5 9 7
      3.44558402273348633391e-03 	 5 5 9 8
      1.84344455362525611042e-01 	 5 5 9 9
     -4.37666575904882820119e-03 	 6 1 1 1
      2.67410196101021315623e-04 	 6 1 2 1
     -2.23261243787811758388e-03 	 6 1 2 2
      5.45098269808082930288e-04 	 6 1 3 1
      1.50689893788463671193e-04 	 6 1 3 2
      4.15926575333745024432e-03 	 6 1 3 3
     -4.82162555840189043822e-04 	 6 1 4 1
      5.21196463205574715151e-05 	 6 1 4 2
     -1.97010029584733269484e-05 	 6 1 4 3
     -1.40330281031812373338e-03 	 6 1 4 4
      1.50025542098864870730e-03 	 6 1 5 1
      7.72449085841657705903e-05 	 6 1 5 2
      7.94972072285958703854e-05 	 6 1 5 3
     -1.06899908852583992638e-04 	 6 1 5 4
     -1.43691348149904522813e-03 	 6 1 5 5
      2.24227150853005714748e-03 	 6 1 6 1
      2.74571686637043973264e-04 	 6 1 6 2
      3.40146522463416597828e-04 	 6 1 6 3
     -1.80259747047229059542e-04 	 6 1 6 4
     -3.51431623534150883517e-04 	 6 1 6 5
     -5.51120550202717062599e-03 	 6 1 6 6