[Molden Format]
[Atoms] (AU)
C    1    6          -1.7560417290         3.8201335353         1.4072935651
C    2    6           0.8996526994         3.7198906508         1.2904629481
C    3    6           2.1789168974         1.3849100902         1.2681745544
C    4    6           0.9189913629        -0.8605791826         1.3373521555
C    5    6          -3.1117908155         1.6063123495         1.4862385936
H    6    1          -2.7023594651         5.6317586784         1.4260704886
H    7    1           2.0193060746         5.4392345523         1.2175962992
H    8    1           1.9481341321        -2.6354696561         1.3222704592
H    9    1          -5.1596928569         1.6293353931         1.5774049912
N   10    7           4.9654479125         1.3847433219         1.1509898406
O   11    8           6.0251281646        -0.7140505559         1.1120130487
O   12    8           6.0210860404         3.4878886720         1.1081773960
C   13    6          -1.8564080692        -0.8768824735         1.4363152230
H   14    1          -2.6371261003        -2.2500438935         2.7692542003
BR  15   35          -2.8245234750        -2.2448439530        -2.0111528524
[GTO]
  1 0
 s    6  1.00
     4563.2400000000         0.0019666500
      682.0240000000         0.0152306000
      154.9730000000         0.0761269000
       44.4553000000         0.2608010000
       13.0290000000         0.6164620000
        1.8277300000         0.2210060000
 s    3  1.00
       20.9642000000         0.1146600000
        4.8033100000         0.9199990000
        1.4593300000        -0.0030306800
 p    3  1.00
       20.9642000000         0.0402487000
        4.8033100000         0.2375940000
        1.4593300000         0.8158540000
 s    1  1.00
        0.4834560000         1.0000000000
 p    1  1.00
        0.4834560000         1.0000000000
 s    1  1.00
        0.1455850000         1.0000000000
 p    1  1.00
        0.1455850000         1.0000000000
 d    1  1.00
        0.6260000000         1.0000000000

  2 0
 s    6  1.00
     4563.2400000000         0.0019666500
      682.0240000000         0.0152306000
      154.9730000000         0.0761269000
       44.4553000000         0.2608010000
       13.0290000000         0.6164620000
        1.8277300000         0.2210060000
 s    3  1.00
       20.9642000000         0.1146600000
        4.8033100000         0.9199990000
        1.4593300000        -0.0030306800
 p    3  1.00
       20.9642000000         0.0402487000
        4.8033100000         0.2375940000
        1.4593300000         0.8158540000
 s    1  1.00
        0.4834560000         1.0000000000
 p    1  1.00
        0.4834560000         1.0000000000
 s    1  1.00
        0.1455850000         1.0000000000
 p    1  1.00
        0.1455850000         1.0000000000
 d    1  1.00
        0.6260000000         1.0000000000

  3 0
 s    6  1.00
     4563.2400000000         0.0019666500
      682.0240000000         0.0152306000
      154.9730000000         0.0761269000
       44.4553000000         0.2608010000
       13.0290000000         0.6164620000
        1.8277300000         0.2210060000
 s    3  1.00
       20.9642000000         0.1146600000
        4.8033100000         0.9199990000
        1.4593300000        -0.0030306800
 p    3  1.00
       20.9642000000         0.0402487000
        4.8033100000         0.2375940000
        1.4593300000         0.8158540000
 s    1  1.00
        0.4834560000         1.0000000000
 p    1  1.00
        0.4834560000         1.0000000000
 s    1  1.00
        0.1455850000         1.0000000000
 p    1  1.00
        0.1455850000         1.0000000000
 d    1  1.00
        0.6260000000         1.0000000000

  4 0
 s    6  1.00
     4563.2400000000         0.0019666500
      682.0240000000         0.0152306000
      154.9730000000         0.0761269000
       44.4553000000         0.2608010000
       13.0290000000         0.6164620000
        1.8277300000         0.2210060000
 s    3  1.00
       20.9642000000         0.1146600000
        4.8033100000         0.9199990000
        1.4593300000        -0.0030306800
 p    3  1.00
       20.9642000000         0.0402487000
        4.8033100000         0.2375940000
        1.4593300000         0.8158540000
 s    1  1.00
        0.4834560000         1.0000000000
 p    1  1.00
        0.4834560000         1.0000000000
 s    1  1.00
        0.1455850000         1.0000000000
 p    1  1.00
        0.1455850000         1.0000000000
 d    1  1.00
        0.6260000000         1.0000000000

  5 0
 s    6  1.00
     4563.2400000000         0.0019666500
      682.0240000000         0.0152306000
      154.9730000000         0.0761269000
       44.4553000000         0.2608010000
       13.0290000000         0.6164620000
        1.8277300000         0.2210060000
 s    3  1.00
       20.9642000000         0.1146600000
        4.8033100000         0.9199990000
        1.4593300000        -0.0030306800
 p    3  1.00
       20.9642000000         0.0402487000
        4.8033100000         0.2375940000
        1.4593300000         0.8158540000
 s    1  1.00
        0.4834560000         1.0000000000
 p    1  1.00
        0.4834560000         1.0000000000
 s    1  1.00
        0.1455850000         1.0000000000
 p    1  1.00
        0.1455850000         1.0000000000
 d    1  1.00
        0.6260000000         1.0000000000

  6 0
 s    3  1.00
       33.8650000000         0.0254938000
        5.0947900000         0.1903730000
        1.1587900000         0.8521610000
 s    1  1.00
        0.3258400000         1.0000000000
 s    1  1.00
        0.1027410000         1.0000000000

  7 0
 s    3  1.00
       33.8650000000         0.0254938000
        5.0947900000         0.1903730000
        1.1587900000         0.8521610000
 s    1  1.00
        0.3258400000         1.0000000000
 s    1  1.00
        0.1027410000         1.0000000000

  8 0
 s    3  1.00
       33.8650000000         0.0254938000
        5.0947900000         0.1903730000
        1.1587900000         0.8521610000
 s    1  1.00
        0.3258400000         1.0000000000
 s    1  1.00
        0.1027410000         1.0000000000

  9 0
 s    3  1.00
       33.8650000000         0.0254938000
        5.0947900000         0.1903730000
        1.1587900000         0.8521610000
 s    1  1.00
        0.3258400000         1.0000000000
 s    1  1.00
        0.1027410000         1.0000000000

  10 0
 s    6  1.00
     6293.4800000000         0.0019697900
      949.0440000000         0.0149613000
      218.7760000000         0.0735006000
       63.6916000000         0.2489370000
       18.8282000000         0.6024600000
        2.7202300000         0.2562020000
 s    3  1.00
       30.6331000000         0.1119060000
        7.0261400000         0.9216660000
        2.1120500000        -0.0025691900
 p    3  1.00
       30.6331000000         0.0383119000
        7.0261400000         0.2374030000
        2.1120500000         0.8175920000
 s    1  1.00
        0.6840090000         1.0000000000
 p    1  1.00
        0.6840090000         1.0000000000
 s    1  1.00
        0.2008780000         1.0000000000
 p    1  1.00
        0.2008780000         1.0000000000
 d    1  1.00
        0.9130000000         1.0000000000

  11 0
 s    6  1.00
     8588.5000000000         0.0018951500
     1297.2300000000         0.0143859000
      299.2960000000         0.0707320000
       87.3771000000         0.2400010000
       25.6789000000         0.5947970000
        3.7400400000         0.2808020000
 s    3  1.00
       42.1175000000         0.1138890000
        9.6283700000         0.9208110000
        2.8533200000        -0.0032744700
 p    3  1.00
       42.1175000000         0.0365114000
        9.6283700000         0.2371530000
        2.8533200000         0.8197020000
 s    1  1.00
        0.9056610000         1.0000000000
 p    1  1.00
        0.9056610000         1.0000000000
 s    1  1.00
        0.2556110000         1.0000000000
 p    1  1.00
        0.2556110000         1.0000000000
 d    1  1.00
        1.2920000000         1.0000000000

  12 0
 s    6  1.00
     8588.5000000000         0.0018951500
     1297.2300000000         0.0143859000
      299.2960000000         0.0707320000
       87.3771000000         0.2400010000
       25.6789000000         0.5947970000
        3.7400400000         0.2808020000
 s    3  1.00
       42.1175000000         0.1138890000
        9.6283700000         0.9208110000
        2.8533200000        -0.0032744700
 p    3  1.00
       42.1175000000         0.0365114000
        9.6283700000         0.2371530000
        2.8533200000         0.8197020000
 s    1  1.00
        0.9056610000         1.0000000000
 p    1  1.00
        0.9056610000         1.0000000000
 s    1  1.00
        0.2556110000         1.0000000000
 p    1  1.00
        0.2556110000         1.0000000000
 d    1  1.00
        1.2920000000         1.0000000000

  13 0
 s    6  1.00
     4563.2400000000         0.0019666500
      682.0240000000         0.0152306000
      154.9730000000         0.0761269000
       44.4553000000         0.2608010000
       13.0290000000         0.6164620000
        1.8277300000         0.2210060000
 s    3  1.00
       20.9642000000         0.1146600000
        4.8033100000         0.9199990000
        1.4593300000        -0.0030306800
 p    3  1.00
       20.9642000000         0.0402487000
        4.8033100000         0.2375940000
        1.4593300000         0.8158540000
 s    1  1.00
        0.4834560000         1.0000000000
 p    1  1.00
        0.4834560000         1.0000000000
 s    1  1.00
        0.1455850000         1.0000000000
 p    1  1.00
        0.1455850000         1.0000000000
 d    1  1.00
        0.6260000000         1.0000000000

  14 0
 s    3  1.00
       33.8650000000         0.0254938000
        5.0947900000         0.1903730000
        1.1587900000         0.8521610000
 s    1  1.00
        0.3258400000         1.0000000000
 s    1  1.00
        0.1027410000         1.0000000000

  15 0
 s    6  1.00
   439700.0000000000         0.0008130000
    66030.0000000000         0.0062850000
    15140.0000000000         0.0319200000
     4317.0000000000         0.1288000000
     1414.0000000000         0.3946000000
      523.9000000000         0.5413000000
 s    3  1.00
      523.9000000000         0.1831000000
      207.7000000000         0.6176000000
       86.5400000000         0.2538000000
 s    1  1.00
       30.5200000000         1.0000000000
 s    1  1.00
       12.9800000000         1.0000000000
 s    1  1.00
        4.4120000000         1.0000000000
 s    1  1.00
        1.8620000000         1.0000000000
 s    1  1.00
        0.3932000000         1.0000000000
 s    1  1.00
        0.1400000000         1.0000000000
 p    3  1.00
     2957.0000000000         0.0222600000
      700.3000000000         0.1802000000
      224.6000000000         0.8624000000
 p    3  1.00
       82.5900000000         0.3440000000
       33.1900000000         0.5071000000
       14.2000000000         0.2590000000
 p    3  1.00
       14.2000000000         0.0796500000
        7.4380000000         0.3734000000
        3.5260000000         0.6049000000
 p    1  1.00
        1.5950000000         1.0000000000
 p    1  1.00
        0.8462000000         1.0000000000
 p    1  1.00
        0.3186000000         1.0000000000
 p    1  1.00
        0.1096000000         1.0000000000
 d    4  1.00
      134.8000000000         0.0183100000
       36.3900000000         0.1350000000
       12.1600000000         0.4261000000
        4.3410000000         0.6043000000
 d    1  1.00
        1.5350000000         1.0000000000
 d    1  1.00
        0.4510000000         1.0000000000

[5D]
[9G]

[MO]
 Sym= A
 Ene=        -4.9022893137e+02
 Spin= Alpha
 Occup=         0.0000000000e+00
  1         1.3389260816e-10
  2        -2.2576737410e-10
  3        -5.3666906483e-09
  4        -4.9730659864e-08
  5        -3.1286853648e-09
  6         1.4175329223e-07
  7         3.9400403818e-08
  8         2.0596584111e-07
  9         4.3929161156e-09
 10        -4.0199121408e-06
 11        -1.2275471226e-06
 12         1.8739818668e-06
 13         2.7014531585e-07
 14         4.6080336044e-08
 15        -1.8194894368e-09
 16        -1.8110526880e-08
 17         1.6578434816e-08
 18        -3.0992991661e-08
 19        -5.1156856152e-09
 20         1.3145403050e-08
 21        -6.0673875328e-10
 22        -1.0058020061e-10
 23        -1.4415515768e-08
 24        -1.2159966853e-07
 25        -1.4081064499e-08
 26        -2.9086438570e-08
 27         5.2139202065e-08
 28         3.1692786945e-06
 29        -1.3506096327e-06
 30        -1.3661673458e-06
 31        -1.1759770348e-07
 32        -1.3067680751e-08
 33         1.2840162221e-09
 34         7.5183044139e-09
 35         9.5523241058e-09
 36        -1.6245322234e-08
 37        -1.7582839790e-10
 38         3.3911457786e-10
 39        -4.0717656463e-08
 40        -2.1334625839e-08
 41        -1.8064496022e-09
 42         1.4025466203e-07
 43         1.4884042710e-07
 44         1.0815889842e-07
 45        -5.7462441603e-10
 46        -4.1227681087e-06
 47         2.3407041218e-06
 48         7.1178894989e-07
 49         1.6228688269e-07
 50         5.3270291996e-08
 51        -5.1260745108e-09
 52        -1.0438710360e-08
 53         1.9073693956e-08
 54        -3.7437144110e-08
 55        -1.6522702292e-08
 56         4.4977300371e-08
 57         1.8882041958e-08
 58        -3.1732644984e-09
 59        -9.1519845886e-09
 60        -5.1679220042e-07
 61        -3.4187797964e-09
 62         6.8073610724e-08
 63         5.9866342396e-08
 64         6.3693886359e-06
 65        -2.1362866319e-06
 66         2.4675683254e-06
 67        -5.9850737485e-07
 68        -1.0759350910e-07
 69         1.0628463591e-07
 70         4.3099860674e-09
 71         6.5499850214e-08
 72         6.1463881115e-08
 73        -1.6773604660e-08
 74         4.5614015192e-08
 75        -8.0613845040e-09
 76         2.8589711206e-08
 77        -6.6404403058e-09
 78        -5.0038994312e-07
 79         4.6689187841e-08
 80        -2.9502985041e-08
 81         5.3558723440e-08
 82         5.6339040724e-06
 83         2.8646082611e-06
 84        -9.2768148547e-07
 85        -7.6471254774e-07
 86        -8.8760309901e-08
 87        -4.8607772971e-08
 88         1.0627331523e-07
 89        -8.2474033042e-08
 90        -1.1470609922e-08
 91         2.7261007905e-08
 92        -2.8570959702e-07
 93        -3.5221988576e-07
 94        -2.3821712147e-08
 95         2.3511189215e-07
 96         3.1256136048e-07
 97        -1.1953677567e-08
 98         1.6192843235e-07
 99         7.1482372643e-07
100        -5.8070662614e-09
101         1.0986536439e-07
102         7.0573414074e-07
103         1.0877107609e-09
104        -2.9456704199e-09
105        -5.6418804965e-09
106        -7.4289199745e-09
107         3.8771996904e-09
108         4.2982032251e-08
109         1.9746002759e-08
110         3.6325374672e-08
111        -9.9176592031e-09
112        -7.5137368157e-07
113        -4.8168670064e-09
114        -3.0729236323e-07
115        -3.3532255997e-08
116         6.6866558437e-09
117         2.6109169457e-09
118        -2.0734655350e-09
119         3.7027854477e-09
120         2.4935305820e-09
121        -1.4581896476e-09
122         4.5619860779e-09
123        -4.6723487312e-09
124         4.6195323103e-10
125         6.7071372837e-09
126        -2.9708126650e-08
127         1.9308640839e-08
128        -2.6374467963e-09
129        -2.1647509812e-08
130         1.0069146611e-08
131        -4.0196187168e-08
132         4.3826428412e-08
133         4.0931119403e-08
134        -1.3804117544e-08
135        -4.5872101943e-09
136         7.0680750932e-10
137        -1.7585487601e-09
138        -5.8844053038e-10
139        -1.3891214910e-09
140         4.2568185893e-09
141         1.4510259094e-09
142        -2.8237064243e-10
143        -1.9238738055e-09
144        -2.7297006953e-08
145        -4.5420447201e-09
146         1.1629118078e-09
147         4.8102370850e-09
148         2.4743259415e-07
149        -3.1126312874e-08
150        -1.1791866382e-07
151        -2.6952204678e-09
152        -3.4248492660e-09
153         3.9565840302e-10
154        -1.1144109154e-09
155        -3.1796629845e-09
156         2.7528292866e-10
157         2.3079186285e-08
158        -7.1468101579e-08
159        -1.3478859446e-08
160        -2.1330685811e-08
161        -1.2754216229e-07
162         7.5869994741e-07
163        -6.5730406706e-08
164        -7.5355969871e-08
165         6.0498852198e-08
166        -6.6889891719e-06
167        -1.6875557390e-06
168        -2.8611232767e-06
169         6.0773515784e-07
170         2.3483426585e-08
171        -6.2379737157e-08
172        -1.0605306823e-07
173        -2.1165302500e-08
174         3.0917503357e-08
175        -2.4853209344e-08
176        -2.1878924636e-07
177        -1.8327559253e-07
178         3.8999192240e-01
179         6.7446806038e-01
180         7.5833963599e-03
181        -4.3984680903e-04
182         2.4719770287e-05
183        -3.5055741103e-05
184         8.8175489272e-06
185        -3.4333854415e-06
186         1.6880682159e-06
187         2.4179689345e-06
188         5.4583007129e-06
189         6.0545708990e-07
190         8.6892913667e-07
191         1.9724993349e-06
192        -3.3673630609e-07
193        -4.8845758779e-07
194        -1.0744674575e-06
195         4.8523786440e-07
196         7.1800929457e-07
197         1.4954720800e-06
198        -5.2429166992e-07
199        -7.8944757661e-07
200        -1.5464682846e-06
201         4.6604493298e-07
202         7.1624906717e-07
203         1.2295238931e-06
204        -3.6012989465e-07
205        -5.3318068362e-07
206        -1.1117390201e-06
207         7.1786338301e-07
208         4.4210813341e-07
209         6.2426613059e-07
210        -6.4772514691e-08
211         1.8992709378e-07
212        -3.8729672340e-07
213        -2.4450345123e-07
214        -3.4691132868e-07
215         4.5928171506e-08
216        -1.2024822128e-07
217        -2.3153720607e-08
218         1.8349480369e-08
219         3.4588395389e-08
220        -3.1572032856e-08
221         5.1747518353e-08
 Sym= A
 Ene=        -6.5362316219e+01
 Spin= Alpha
 Occup=         0.0000000000e+00
  1        -1.6744896346e-07
  2         2.5103425392e-07
  3         1.5719590752e-06
  4         1.4880127232e-05
  5         8.3610564260e-07
  6        -4.7792293275e-05
  7        -1.2081695442e-05
  8        -6.3307376759e-05
  9         1.4624428064e-06
 10         1.2890174460e-03
 11         3.8942751990e-04
 12        -6.0489415065e-04
 13        -8.8559066627e-05
 14        -1.6489090464e-05
 15        -3.3693507849e-07
 16         5.9833805688e-06
 17        -4.6474371491e-06
 18         1.1093409291e-05
 19         9.9086576662e-07
 20        -3.2466653266e-06
 21        -2.2272940356e-07
 22        -6.3429571765e-07
 23         4.5686318922e-06
 24         3.7890584877e-05
 25         6.0161086752e-06
 26         1.1789689013e-05
 27        -1.4477332912e-05
 28        -1.0092799712e-03
 29         4.4472872763e-04
 30         4.4311539305e-04
 31         3.8140832192e-05
 32         4.4678533635e-06
 33        -2.5937246852e-07
 34        -2.4295242034e-06
 35        -2.8338535608e-06
 36         5.2581888255e-06
 37        -1.3292391169e-07
 38         2.2769236718e-07
 39         1.2149080511e-05
 40         6.3250998787e-06
 41         2.8721164531e-07
 42        -4.8766451905e-05
 43        -4.4837275518e-05
 44        -3.3213159691e-05
 45         3.7982889544e-06
 46         1.3291501608e-03
 47        -7.6915740711e-04
 48        -2.5369334836e-04
 49        -5.6745828876e-05
 50        -1.9061426974e-05
 51         1.9707804315e-06
 52         2.8692103950e-06
 53        -7.6901641268e-06
 54         1.1982964401e-05
 55         4.2974299291e-06
 56        -1.3246514021e-05
 57        -2.8717595733e-06
 58         2.2803313343e-06
 59         3.4061816563e-06
 60         1.6535457229e-04
 61        -8.9990245741e-06
 62        -2.5730594536e-05
 63        -2.5776790542e-05
 64        -2.0044462469e-03
 65         6.4633047129e-04
 66        -7.8354503825e-04
 67         1.8796617604e-04
 68         3.3996356223e-05
 69        -3.0280328354e-05
 70        -2.0412188386e-06
 71        -1.9874010687e-05
 72        -1.9169692137e-05
 73         4.3428230434e-06
 74        -1.3420394275e-05
 75         2.1965185603e-06
 76        -5.7341980633e-06
 77         2.7559485076e-06
 78         1.5971621917e-04
 79        -1.3656760847e-05
 80        -6.7452112913e-07
 81        -2.3943058483e-05
 82        -1.7508640774e-03
 83        -8.8469938734e-04
 84         2.7804868731e-04
 85         2.3722579418e-04
 86         2.8125369041e-05
 87         1.3066701956e-05
 88        -3.1118790285e-05
 89         2.5281129926e-05
 90         3.6183848612e-06
 91        -9.0916935547e-06
 92         9.2160445823e-05
 93         1.1507546977e-04
 94         7.5685871840e-06
 95        -7.9002010863e-05
 96        -1.0190035767e-04
 97         1.0924324677e-06
 98        -4.3043002161e-05
 99        -2.2463975356e-04
100        -1.2253169191e-06
101        -2.4683666528e-05
102        -2.1988344147e-04
103        -3.0098778261e-07
104         1.2292678759e-06
105         1.6622554508e-06
106         2.2643268518e-06
107        -6.8737357432e-07
108        -1.6474264268e-05
109        -5.6698685964e-06
110        -1.1542085748e-05
111         1.5145355998e-06
112         2.5186922725e-04
113        -3.8251859061e-06
114         1.0850676039e-04
115         1.5199996790e-05
116        -2.1152436069e-06
117        -9.5587438414e-07
118         6.0628108557e-07
119        -1.2355295823e-06
120        -5.8878829769e-07
121         1.6188209487e-07
122        -9.2709374067e-07
123         1.3548361368e-06
124        -2.0618354935e-07
125        -2.0602469108e-06
126         7.6171636258e-06
127        -5.7720564283e-06
128         1.0079298024e-06
129         6.6346565059e-06
130         5.3187869541e-06
131         1.0110446377e-05
132        -1.2218409070e-05
133        -1.3651155112e-05
134         4.1304679750e-06
135         1.3555466952e-06
136        -3.4766577232e-07
137         6.5456292650e-07
138         1.5002908691e-07
139         1.8299549848e-07
140        -1.0143199752e-06
141        -5.5072328889e-07
142        -1.6911695423e-08
143         4.5370131803e-07
144         8.3363123727e-06
145         1.7758619817e-06
146         5.1995888281e-08
147        -1.3863480044e-06
148        -8.2818978103e-05
149         1.0688103273e-05
150         3.8903896879e-05
151        -3.6844247349e-07
152         1.0436949788e-06
153        -1.2327825872e-07
154         4.8803605460e-07
155         1.0649205553e-06
156        -2.7510997768e-07
157        -5.4945264674e-06
158         1.4761160804e-05
159         7.8464894884e-07
160         1.9274094646e-06
161         2.9106030945e-05
162        -1.9420800089e-04
163         2.0661111472e-05
164         2.2850998803e-05
165        -2.6354892970e-05
166         1.9608797320e-03
167         5.1855261996e-04
168         8.8458416643e-04
169        -1.4426641906e-04
170        -9.0345065243e-06
171         1.7621326506e-05
172         3.0370262206e-05
173         5.7167236883e-06
174        -8.2123343928e-06
175         3.7273218721e-06
176         8.2489826049e-05
177         4.8314574597e-05
178         1.2895631712e-01
179         3.7895026421e-01
180        -6.3833127903e-01
181        -4.8934574678e-01
182        -4.7224000067e-02
183         7.4218149366e-03
184        -2.2943515968e-03
185         1.1988970309e-03
186        -2.6687855522e-05
187        -3.8302077526e-05
188        -8.6932775864e-05
189        -2.2204054110e-04
190        -3.1890524510e-04
191        -7.2236081866e-04
192        -2.5905158614e-05
193        -3.5841305530e-05
194        -8.7305469903e-05
195        -4.2244351825e-06
196        -1.2543398840e-05
197         4.5122054783e-06
198         3.7212024335e-05
199         6.4780520417e-05
200         8.2723495049e-05
201        -8.7578723893e-05
202        -1.4025722995e-04
203        -2.0786820941e-04
204         1.0552533388e-04
205         1.5603358433e-04
206         3.2966995276e-04
207        -4.3193773001e-05
208        -2.7083148435e-05
209        -3.8459136588e-05
210         4.7435693134e-06
211        -1.2698997288e-05
212         2.6317716083e-06
213         3.4628348959e-06
214         5.5281631801e-06
215        -4.0325166752e-06
216         6.6253293957e-06
217         9.0465978911e-06
218        -3.6352710465e-06
219        -7.8683795347e-06
220         9.3130079171e-06
221        -1.4565769865e-05
 Sym= A
 Ene=        -5.8722777434e+01
 Spin= Alpha
 Occup=         0.0000000000e+00
  1         9.7676848924e-07
  2        -3.1635490772e-06
  3         9.7412816499e-07
  4         2.8310348807e-06
  5         3.2410834888e-06
  6         3.1218058118e-05
  7        -6.6713595421e-06
  8        -1.6319351275e-05
  9        -1.3401723926e-05
 10        -1.4619533272e-04
 11        -6.4641974532e-06
 12         9.3816184354e-05
 13         2.3492573283e-05
 14         1.1203929038e-05
 15         6.8373674384e-06
 16        -3.3519884845e-06
 17        -5.0133077824e-06
 18        -6.0181272194e-06
 19         1.0006779925e-06
 20        -3.1832641260e-06
 21         2.9989885375e-06
 22         4.6110534252e-06
 23         2.1044116437e-06
 24         6.0114453250e-06
 25        -1.2231220361e-05
 26        -2.0566938752e-05
 27        -7.3557393935e-06
 28         5.3829849145e-05
 29        -1.1916673620e-04
 30        -7.6428139695e-05
 31        -2.1646954617e-06
 32        -3.0626717651e-06
 33        -1.8561974103e-06
 34        -8.3312810866e-07
 35        -1.4857184810e-06
 36        -8.3561375468e-07
 37         1.2218777533e-06
 38        -4.0086621153e-06
 39         2.5652618289e-06
 40         2.0188907816e-06
 41         4.4148925284e-06
 42         4.1115404100e-05
 43        -1.5450878414e-05
 44        -1.3583158756e-05
 45        -1.8011309999e-05
 46        -2.1512571714e-04
 47         1.9410933633e-04
 48         2.0836944473e-04
 49         3.9546181914e-05
 50         1.3959176850e-05
 51        -3.8887709640e-06
 52         2.8350194866e-06
 53         9.3777481467e-06
 54         1.3550684572e-06
 55        -1.9094529203e-06
 56         6.5054077857e-06
 57        -1.0519588830e-05
 58        -5.3240003227e-06
 59        -7.8685280082e-06
 60        -2.0753506313e-05
 61         5.7207345186e-05
 62         2.7222092996e-05
 63         3.7512573385e-05
 64        -6.1948255627e-05
 65         2.2044080237e-04
 66         3.4710163511e-05
 67         1.5196954666e-05
 68        -3.0284154766e-07
 69        -1.5177999719e-05
 70         5.5346074506e-06
 71         1.5804615606e-06
 72        -2.0967471802e-06
 73        -1.8667450493e-06
 74         6.3682373241e-06
 75         4.6702050245e-07
 76        -1.0484470331e-05
 77        -7.9689460968e-06
 78        -1.6309897816e-05
 79        -3.7083977817e-06
 80         5.5980497438e-05
 81         3.8393943197e-05
 82        -2.1184040284e-04
 83        -1.4274661412e-04
 84         1.2398943322e-04
 85         3.9517100267e-05
 86        -2.6261351219e-07
 87         1.3090927441e-05
 88        -9.5594232859e-06
 89         2.2450046877e-06
 90        -5.5716326314e-06
 91         3.6434267455e-06
 92        -1.3478342688e-05
 93        -2.6700060802e-05
 94        -1.0960102509e-06
 95         3.3165846058e-05
 96         1.8614181289e-05
 97         1.7720058576e-05
 98        -6.0538074266e-05
 99        -1.1347188928e-05
100         2.0072693309e-05
101        -7.3080847057e-05
102        -2.3579923670e-05
103         5.6444969185e-07
104        -2.4456023537e-06
105         4.2876137947e-07
106        -1.3526485471e-07
107        -3.1964496599e-06
108         1.6827110489e-05
109        -1.6966468357e-06
110         2.0297747460e-06
111         1.0707199341e-05
112        -8.8005891402e-05
113         2.6187125499e-05
114        -7.9322440591e-05
115        -3.1098809540e-05
116         2.7312569721e-10
117         5.1365086892e-07
118         4.6434070614e-08
119         5.8168280390e-07
120        -8.5249549253e-07
121         2.1963866612e-07
122        -1.4622553704e-06
123         2.9369921915e-07
124         5.6994588089e-07
125         1.4624763749e-07
126         1.0704926452e-05
127        -1.6860560587e-06
128        -1.5301816210e-06
129        -4.9994823556e-07
130        -5.4846165759e-05
131         1.7845758943e-05
132        -8.9615144715e-06
133         4.9799229706e-06
134         4.9051546574e-07
135         3.4343968907e-07
136         8.8818869739e-07
137        -8.0150465939e-07
138         2.9091984588e-07
139         4.0633363423e-08
140        -3.3825732130e-07
141         7.1819134298e-07
142         5.1513339752e-07
143         3.1896385118e-07
144         9.8428086393e-07
145        -2.8716599286e-06
146        -2.2523871906e-06
147        -1.0987117153e-06
148         3.4190426037e-05
149        -4.3950308964e-06
150        -1.2440500573e-05
151         7.2135118863e-06
152         1.7740452067e-07
153         1.1387195286e-07
154        -9.2500486463e-07
155        -5.5092690805e-07
156         9.0362707929e-07
157         3.9344201438e-07
158         1.3655097825e-06
159         8.3344885728e-06
160         1.0863334362e-05
161         1.8366288913e-05
162        -1.9452001047e-04
163        -4.6155320604e-05
164        -6.2475122400e-05
165        -8.2439847961e-05
166         9.2751876236e-04
167         1.2404147788e-04
168         1.6549824228e-04
169        -2.7075089421e-04
170         5.5606201348e-05
171         3.5040518691e-05
172         5.0905969967e-05
173         6.3535806692e-07
174         3.6322964824e-06
175         1.8411217880e-05
176        -8.5194740731e-05
177         4.0322896000e-05
178         1.2064876989e-04
179         3.5783931135e-04
180        -6.6110954057e-04