&FCI NORB=8,NELEC=0,MS2=0
ORBSYM=1,1,1,1,
ISYM=1,
/
      4.03527350094866482655e-02 	 1 1 1 1
     -2.77714597545763389880e-03 	 1 2 1 1
     -5.10738376982220951272e-03 	 1 3 1 1
      1.48037919213126032032e-03 	 1 4 1 1
     -6.31237074440047039176e-03 	 1 5 1 1
      2.39495885861016726817e-04 	 1 6 1 1
      1.21881309290134895451e-02 	 1 7 1 1
     -4.78490493545837870804e-03 	 1 8 1 1
     -2.77714597545764300610e-03 	 2 1 1 1
      2.57963337493716353410e-02 	 2 2 1 1
     -1.24442704052241254198e-02 	 2 3 1 1
      6.27154799518250469226e-03 	 2 4 1 1
     -1.75102090596131812483e-02 	 2 5 1 1
      1.00095047243491043661e-03 	 2 6 1 1
      1.05227626983002194722e-02 	 2 7 1 1
      2.49531826366240988904e-03 	 2 8 1 1
     -5.10738376982221038008e-03 	 3 1 1 1
     -1.24442704052241236851e-02 	 3 2 1 1
      2.19245249506271888684e-02 	 3 3 1 1
      1.08186988276399542568e-03 	 3 4 1 1
     -9.41425310629534538645e-04 	 3 5 1 1
      1.14652304318739093301e-03 	 3 6 1 1
     -1.58650935719765757287e-03 	 3 7 1 1
     -1.20840029115048121049e-03 	 3 8 1 1
      1.48037919213125641719e-03 	 4 1 1 1
      6.27154799518250902907e-03 	 4 2 1 1
      1.08186988276399650988e-03 	 4 3 1 1
     -1.00250214992302043304e-02 	 4 4 1 1
     -9.97229076392198640622e-04 	 4 5 1 1
     -4.81067936646803126499e-03 	 4 6 1 1
     -1.19502984081973416368e-03 	 4 7 1 1
     -3.20233819643606478292e-03 	 4 8 1 1
     -6.31237074440046778967e-03 	 5 1 1 1
     -1.75102090596131569622e-02 	 5 2 1 1
     -9.41425310629538008092e-04 	 5 3 1 1
     -9.97229076392201893228e-04 	 5 4 1 1
      1.40594826340443759122e-02 	 5 5 1 1
     -3.34047298698917543083e-03 	 5 6 1 1
      6.40435640194991599727e-03 	 5 7 1 1
     -1.01983067583280521268e-02 	 5 8 1 1
      2.39495885861017024972e-04 	 6 1 1 1
      1.00095047243490718400e-03 	 6 2 1 1
      1.14652304318739201722e-03 	 6 3 1 1
     -4.81067936646801912193e-03 	 6 4 1 1
     -3.34047298698917890028e-03 	 6 5 1 1
     -3.17378298643481437935e-02 	 6 6 1 1
     -3.14147035127386063322e-03 	 6 7 1 1
      5.35544400278012132388e-06 	 6 8 1 1
      1.21881309290134947493e-02 	 7 1 1 1
      1.05227626983002229416e-02 	 7 2 1 1
     -1.58650935719765757287e-03 	 7 3 1 1
     -1.19502984081973242896e-03 	 7 4 1 1
      6.40435640194990905838e-03 	 7 5 1 1
     -3.14147035127386193426e-03 	 7 6 1 1
      6.28187280895667887748e-02 	 7 7 1 1
     -7.70126037600102494006e-04 	 7 8 1 1
     -4.78490493545837610595e-03 	 8 1 1 1
      2.49531826366242810364e-03 	 8 2 1 1
     -1.20840029115048229469e-03 	 8 3 1 1
     -3.20233819643608213015e-03 	 8 4 1 1
     -1.01983067583280469226e-02 	 8 5 1 1
      5.35544400277953771818e-06 	 8 6 1 1
     -7.70126037600100650862e-04 	 8 7 1 1
      2.70804563403826900614e-02 	 8 8 1 1
      0.00000000000000000000e+00 	 0 0 0 0
