14
Step 0  E=-436.5200485476  phi=36.879  theta=73.569
C  -1.9018320805  1.1727317444 -0.0477714357
C  -0.4769510942  1.2089287444 -0.0526015456
C   0.1989743653  0.0321274571 -0.0408454336
C  -2.6171351433 -0.0300384319 -0.0148517805
H  -2.4418444911  2.1138309521 -0.0591231358
H   0.0611776986  2.1482019874 -0.0520131126
H  -3.6986476598 -0.0202087683 -0.0040742339
N   1.6711367148  0.0356315741  0.0208367553
O   2.2179801682 -1.0816269414  0.1287458175
O   2.2434938843  1.1377998347 -0.0390973451
C  -1.9265003863 -1.2274639319  0.0051281883
H  -2.4534818273 -2.1747490341  0.0390298645
C  -0.4586567821 -1.2763278389 -0.0365917897
H   0.0226507299 -2.0243335046  0.5968152929
14
Step 1  E=-436.5215784718  phi=36.835  theta=73.561
C  -1.9015612583  1.1726470295 -0.0477672615
C  -0.4776909452  1.2090367381 -0.0527486029
C   0.1985073862  0.0308410035 -0.0409400289
C  -2.6166943080 -0.0297276959 -0.0150175118
H  -2.4415593382  2.1134445280 -0.0589222290
H   0.0600343594  2.1469512428 -0.0522250500
H  -3.6977628209 -0.0197262986 -0.0038362882
N   1.6718760603  0.0355255328  0.0209279646
O   2.2177459567 -1.0806128666  0.1286782145
O   2.2430245251  1.1368358457 -0.0390923304
C  -1.9251216208 -1.2276462347  0.0049923403
H  -2.4526649639 -2.1734361370  0.0401476416
C  -0.4596153100 -1.2748980219 -0.0355611193
H   0.0235823710 -2.0273229640  0.5893472003
14
Step 2  E=-436.5240137578  phi=36.764  theta=73.548
C  -1.9011148326  1.1725099885 -0.0477609537
C  -0.4789137132  1.2091848507 -0.0529930432
C   0.1977323625  0.0287355052 -0.0410953939
C  -2.6159502098 -0.0292244438 -0.0152915818
H  -2.4411058401  2.1128368658 -0.0585874229
H   0.0582307925  2.1450353276 -0.0525779637
H  -3.6963489825 -0.0189378473 -0.0034453161
N   1.6730774127  0.0353460901  0.0210779315
O   2.2173668768 -1.0789417532  0.1285675983
O   2.2422512503  1.1352462900 -0.0390847303
C  -1.9228482433 -1.2279251419  0.0047694049
H  -2.4513431529 -2.1713842849  0.0419948372
C  -0.4611980811 -1.2725341300 -0.0338573006
H   0.0251649012 -2.0323141458  0.5770012451
14
Step 3  E=-436.5271961328  phi=36.667  theta=73.529
C  -1.9005004427  1.1723269493 -0.0477534752
C  -0.4806033510  1.2093284947 -0.0533338392
C   0.1966546793  0.0258678214 -0.0413080917
C  -2.6148900937 -0.0285499045 -0.0156707501
H  -2.4405141201  2.1120582835 -0.0581189898
H   0.0559070447  2.1426837032 -0.0530714767
H  -3.6944884695 -0.0178666322 -0.0029096346
N   1.6746950767  0.0350894107  0.0212835726
O   2.2168597120 -1.0766421447  0.1284170409
O   2.2411874331  1.1330567700 -0.0390756858
C  -1.9197177426 -1.2282654597  0.0044646371
H  -2.4495681910 -2.1687806137  0.0445473520
C  -0.4633816831 -1.2692666370 -0.0314999895
H   0.0274301052 -2.0393011518  0.5599131284
14
Step 4  E=-436.5309263417  phi=36.548  theta=73.505
C  -1.8997291932  1.1721069357 -0.0477461524
C  -0.4827362693  1.2094114326 -0.0537694713
C   0.1952827530  0.0223155703 -0.0415733252
C  -2.6134985688 -0.0277323944 -0.0161504486
H  -2.4398216300  2.1111712431 -0.0575177302
H   0.0532341625  2.1401723909 -0.0537052291
H  -3.6922796465 -0.0165445959 -0.0022407336
N   1.6766663665  0.0347505714  0.0215405535
O   2.2162476926 -1.0737540231  0.1282308186
O   2.2398515581  1.1303030294 -0.0390668005
C  -1.9157838084 -1.2286221155  0.0040854665
H  -2.4473980649 -2.1658542025  0.0477704811
C  -0.4661309591 -1.2651415843 -0.0285143939
H   0.0303977027 -2.0482390898  0.5382451494
14
Step 5  E=-436.5349769707  phi=36.411  theta=73.476
C  -1.8988159818  1.1718617421 -0.0477406510
C  -0.4852803058  1.2093712888 -0.0542978612
C   0.1936287613  0.0181752874 -0.0418849662
C  -2.6117597586 -0.0268060400 -0.0167247585
H  -2.4390691281  2.1102435582 -0.0567853651
H   0.0503916663  2.1377836980 -0.0544789907
H  -3.6898226839 -0.0150118411 -0.0014531697
N   1.6789129134  0.0343239928  0.0218432802
O   2.2155601958 -1.0703287579  0.1280143821
O   2.2382669516  1.1270307930 -0.0390601433
C  -1.9111173299 -1.2289438721  0.0036415637
H  -2.4448843969 -2.1628474764  0.0516178474
C  -0.4693969458 -1.2602234940 -0.0249296087
H   0.0340537462 -2.0590114800  0.5121668762
14
Step 6  E=-436.5391020028  phi=36.261  theta=73.441
C  -1.8977798064  1.1716059190 -0.0477389442
C  -0.4881936355  1.2091456232 -0.0549163105
C   0.1917093903  0.0135602159 -0.0422356078
C  -2.6096596390 -0.0258093005 -0.0173863941
H  -2.4382964306  2.1093412210 -0.0559250021
H   0.0475428856  2.1357626118 -0.0553927377
H  -3.6872048350 -0.0133159025 -0.0005644791
N   1.6813423725  0.0338039706  0.0221849002
O   2.2148323113 -1.0664289375  0.1277743113
O   2.2364613968  1.1232954761 -0.0390582466
C  -1.9058073318 -1.2291774141  0.0031449064
H  -2.4420593758 -2.1599857977  0.0560300126
C  -0.4731147617 -1.2545982759 -0.0207773571
H   0.0383287555 -2.0713957596  0.4818416927
14
Step 7  E=-436.5430458909  phi=36.103  theta=73.401
C  -1.8966439674  1.1713566065 -0.0477432698
C  -0.4914239058  1.2086778014 -0.0556214539
C   0.1895464900  0.0085977760 -0.0426166453
C  -2.6071883084 -0.0247833737 -0.0181267018
H  -2.4375384989  2.1085217966 -0.0549416413
H   0.0448120155  2.1342767902 -0.0564466574
H  -3.6844874830 -0.0115108626  0.0004048875
N   1.6838505419  0.0331852842  0.0225573232
O   2.2141042403 -1.0621280084  0.1275182488
O   2.2344666090  1.1191617050 -0.0390640966
C  -1.8999615287 -1.2292713393  0.0026098237
H  -2.4389246168 -2.1574498634  0.0609329317
C  -0.4772019514 -1.2483753710 -0.0160916500
H   0.0430806482 -2.0850348044  0.4474247274
14
Step 8  E=-436.5465570543  phi=35.941  theta=73.355
C  -1.8954360788  1.1711331738 -0.0477560780
C  -0.4949079499  1.2079218743 -0.0564092420
C   0.1871675390  0.0034267114 -0.0430183816
C  -2.6043419399 -0.0237705662 -0.0189356870
H  -2.4368223851  2.1078292551 -0.0538426846
H   0.0422671662  2.1333876039 -0.0576410653
H  -3.6816970901 -0.0096563107  0.0014316261
N   1.6863239042  0.0324638503  0.0229512728
O   2.2134204902 -1.0575096366  0.1272548042
O   2.2323175526  1.1147025839 -0.0390811126
C  -1.8937061104 -1.2291795827  0.0020529815
H  -2.4354445344 -2.1553555361  0.0662365820
C  -0.4815579065 -1.2416883221 -0.0109096698
H   0.0480864573 -2.0994239444  0.4090745237
14
Step 9  E=-436.5494083321  phi=35.782  theta=73.304
C  -1.8941877968  1.1709566319 -0.0477799669
C  -0.4985723958  1.2068458319 -0.0572749608
C   0.1846058292 -0.0018061178 -0.0434301509
C  -2.6011242147 -0.0228126929 -0.0198020790
H  -2.4361654588  2.1072909347 -0.0526384047
H   0.0399130108  2.1330382794 -0.0589762352
H  -3.6788216512 -0.0078161544  0.0024896862
N   1.6886425880  0.0316373791  0.0233563771
O   2.2128288426 -1.0526666958  0.1269934200
O   2.2300515867  1.1099986412 -0.0391131113
C  -1.8871843637 -1.2288639035  0.0014932636
H  -2.4315463251 -2.1537446367  0.0718342348
C  -0.4860649018 -1.2346930397 -0.0052736819
H   0.0530453025 -2.1139194642  0.3669792671
14
Step 10  E=-436.5514254912  phi=35.631  theta=73.247
C  -1.8929341961  1.1708488045 -0.0478176083
C  -0.5023353535  1.2054329277 -0.0582132927
C   0.1819003133 -0.0069493485 -0.0438404543
C  -2.5975471123 -0.0219495467 -0.0207134441
H  -2.4355751299  2.1069169741 -0.0513423248
H   0.0376947568  2.1330618218 -0.0604521686
H  -3.6758133677 -0.0060572954  0.0035504805
N   1.6906837308  0.0307059602  0.0237613103
O   2.2123790886 -1.0476997804  0.1267441868
O   2.2277074411  1.1051364050 -0.0391642527
C  -1.8805538300 -1.2282952552  0.0009515158
H  -2.4271275362 -2.1525881807  0.0776028513
C  -0.4905909261 -1.2275633223  0.0007666175
H   0.0575961527 -2.1277698971  0.3213948245
14
Step 11  E=-436.5525194987  phi=35.492  theta=73.186
C  -1.8917127541  1.1708312865 -0.0478716652
C  -0.5061091672  1.2036811688 -0.0592184054
C   0.1790950736 -0.0118511659 -0.0442370847
C  -2.5936310551 -0.0212174705 -0.0216563460
H  -2.4350500764  2.1067022289 -0.0499714778
H   0.0355127248  2.1332071346 -0.0620683505
H  -3.6725972535 -0.0044481923  0.0045832427
N   1.6923252068  0.0296725065  0.0241539879
O   2.2121215294 -1.0427151637  0.1265176059
O   2.2253240322  1.1002065742 -0.0392389660
C  -1.8739818733 -1.2274540694  0.0004501553
H  -2.4220706535 -2.1518010483  0.0834048863
C  -0.4949941674 -1.2204838985  0.0071517592
H   0.0613509169 -2.1401698929  0.2726795259
14
Step 12  E=-436.5527056172  phi=35.371  theta=73.119
C  -1.8905619683  1.1709242849 -0.0479447121
C  -0.5098040226  1.2016014200 -0.0602840468
C   0.1762383617 -0.0163637650 -0.0446072315
C  -2.5894045357 -0.0206480500 -0.0226165408
H  -2.4345827265  2.1066302522 -0.0485465197
H   0.0332445357  2.1331779485 -0.0638235586
H  -3.6690843950 -0.0030573201  0.0055555587
N   1.6934496438  0.0285429825  0.0245218195
O   2.2121052364 -1.0378221731  0.1263243036
O   2.2229391555  1.0953017896 -0.0393418558
C  -1.8676397299 -1.2263296461  0.0000126636
H  -2.4162626714 -2.1512649081  0.0890915446
C  -0.4991288697 -1.2136418925  0.0138107766
H   0.0639341229 -2.1503287044  0.2213120130
14
Step 13  E=-436.5520977799  phi=35.272  theta=73.047
C  -1.8895196802  1.1711454434 -0.0480391724
C  -0.5133320466  1.1992147773 -0.0614036228
C   0.1733812235 -0.0203481305 -0.0449375980
C  -2.5849033875 -0.0202669351 -0.0235792011
H  -2.4341625802  2.1066786516 -0.0470916580
H   0.0307707049  2.1326773095 -0.0657157929
H  -3.6651878834 -0.0019515419  0.0064340747
N   1.6939486365  0.0273263543  0.0248520289
O   2.2123761070 -1.0331299973  0.1261746950
O   2.2205880982  1.0905140524 -0.0394775894
C  -1.8616952592 -1.2249189619 -0.0003370222
H  -2.4096166557 -2.1508549587  0.0945073852
C  -0.5028521472 -1.2072175502  0.0206611554
H   0.0650209274 -2.1575392554  0.1678992179
14
Step 14  E=-436.5508889157  phi=35.198  theta=72.970
C  -1.8886211966  1.1715087234 -0.0481572926
C  -0.5166114921  1.1965498489 -0.0625702271
C   0.1705758242 -0.0236790010 -0.0452145787
C  -2.5801698351 -0.0200927937 -0.0245291387
H  -2.4337798476  2.1068249499 -0.0456343651
H   0.0279993689  2.1314504283 -0.0677423675
H  -3.6608391166 -0.0011944230  0.0071853347
N   1.6937270410  0.0260342122  0.0251320428
O   2.2129747768 -1.0287439969  0.1260786117
O   2.2183022339  1.0859318883 -0.0396507723
C  -1.8563048135 -1.2232252766 -0.0005751800
H  -2.4020920229 -2.1504659030  0.0994958651
C  -0.5060311849 -1.2013750476  0.0276104814
H   0.0643722769 -2.1612429955  0.1131703525
14
Step 15  E=-436.5493164526  phi=35.153  theta=72.889
C  -1.8878973565  1.1720234375 -0.0483011608
C  -0.5195706678  1.1936404101 -0.0637766173
C   0.1678736055 -0.0262498183 -0.0454244945
C  -2.5752514972 -0.0201364012 -0.0254509965
H  -2.4334288258  2.1070520228 -0.0442048970
H   0.0248866917  2.1293202906 -0.0699001414
H  -3.6560022265 -0.0008444977  0.0077766635
N   1.6927071984  0.0246800775  0.0253499270
O   2.2139344785 -1.0247616898  0.1260449179
O   2.2161076675  1.0816373972 -0.0398658163
C  -1.8516048816 -1.2212569025 -0.0006789658
H  -2.3937106143 -2.1500332230  0.1039051350
C  -0.5085501678 -1.1962543214  0.0345589985
H   0.0618633682 -2.1610845058  0.0579426378
14
Step 16  E=-436.5476102448  phi=35.139  theta=72.803
C  -1.8873727232  1.1726935474 -0.0484727500
C  -0.5221513162  1.1905237189 -0.0650151893
C   0.1653234063 -0.0279773718 -0.0455537944
C  -2.5702005077 -0.0203998770 -0.0263294336
H  -2.4331105175  2.1073523188 -0.0428356486
H   0.0214506481  2.1262124585 -0.0721858256
H  -3.6506848549 -0.0009535083  0.0081770266
N   1.6908329012  0.0232784691  0.0254948354
O   2.2152789754 -1.0212686816  0.1260811354
O   2.2140240079  1.0777033645 -0.0401268064
C  -1.8477042823 -1.2190264371 -0.0006269628
H  -2.3845663609 -2.1495468729  0.1075934073
C  -0.5103163656 -1.1919644663  0.0414031856
H   0.0575013862 -2.1569462160  0.0030763614
14
Step 17  E=-436.5459488561  phi=35.157  theta=72.712
C  -1.8870640820  1.1735172956 -0.0486739510
C  -0.5243111889  1.1872396613 -0.0662780056
C   0.1629697044 -0.0288058361 -0.0455890784
C  -2.5650728609 -0.0208760778 -0.0271493321
H  -2.4328340632  2.1077301742 -0.0415604200
H   0.0177769112  2.1221671138 -0.0745963150
H  -3.6449439068 -0.0015646846  0.0083577906
N   1.6880728987  0.0218438421  0.0255574219
O   2.2170207000 -1.0183348678  0.1261930863
O   2.2120633442  1.0741906357 -0.0404373719
C  -1.8446776502 -1.2165506619 -0.0003994864
H  -2.3748270962 -2.1490554757  0.1104331455
C  -0.5112651164 -1.1885789002  0.0480400321
H   0.0514334404 -2.1489668698 -0.0505656982
14
Step 18  E=-436.5444371163  phi=35.209  theta=72.618
C  -1.8869793913  1.1744872085 -0.0489065693
C  -0.5260256156  1.1838308158 -0.0675568823
C   0.1608511461 -0.0287099142 -0.0455169013
C  -2.5599280231 -0.0215481683 -0.0278960174
H  -2.4326167524  2.1082018755 -0.0404136968
H   0.0140163282  2.1173375508 -0.0771290126
H  -3.6388855955 -0.0027111323  0.0082932817
N   1.6844237170  0.0203895748  0.0255301731
O   2.2191592247 -1.0160112751  0.1263845723
O   2.2102294986  1.0711459557 -0.0408005690
C  -1.8425608878 -1.2138512081  0.0000213984
H  -2.3647280961 -2.1486602413  0.1123135496
C  -0.5113633555 -1.1861325558  0.0543707641
H   0.0439449239 -2.1375457918 -0.1021670329
14
Step 19  E=-436.5430978260  phi=35.294  theta=72.520
C  -1.8871173017  1.1755904818 -0.0491722894
C  -0.5272879238  1.1803434284 -0.0688435186
C   0.1589994740 -0.0276968414 -0.0453234943
C  -2.5548287889 -0.0223894105 -0.0285554778
H  -2.4324825619  2.1087934105 -0.0394299825
H   0.0103740029  2.1119750655 -0.0797821031
H  -3.6326596650 -0.0044143855  0.0079610862
N   1.6799115537  0.0189271870  0.0254076611
O   2.2216802621 -1.0143278596  0.1266571345
O   2.2085176206  1.0686004488 -0.0412187932
C  -1.8413491020 -1.2109559987  0.0006520337
H  -2.3545578623 -2.1484987973  0.1131414299
C  -0.5106111039 -1.1846213802  0.0603039582
H   0.0354474276 -2.1233262029 -0.1510082961
14
Step 20  E=-436.5418834237  phi=35.411  theta=72.418
C  -1.8874673019  1.1768097320 -0.0494726238
C  -0.5281086687  1.1768291765 -0.0701296575
C   0.1574389328 -0.0258070876 -0.0449945849
C  -2.5498412917 -0.0233632376 -0.0291145809
H  -2.4324593662  2.1095361547 -0.0386431825
H   0.0070906089  2.1064010227 -0.0825547100
H  -3.6264482931 -0.0066831710  0.0073421000
N   1.6745930489  0.0174659157  0.0251867303
O   2.2245553523 -1.0132925055  0.1270099288
O   2.2069141676  1.0665688759 -0.0416937328
C  -1.8409972653 -1.2079013350  0.0015073353
H  -2.3446375243 -2.1487203139  0.1128408933
C  -0.5090406696 -1.1840042924  0.0657586216
H   0.0264573668 -2.1071588080 -0.1965004305
14
Step 21  E=-436.5407105591  phi=35.558  theta=72.313
C  -1.8880104732  1.1781240653 -0.0498088577
C  -0.5285137392  1.1733474577 -0.0714072622
C   0.1561861628 -0.0231136501 -0.0445154081
C  -2.5450350288 -0.0244237029 -0.0295612676
H  -2.4325751666  2.1104610502 -0.0380860644
H   0.0044174284  2.1009682598 -0.0854468589
H  -3.6204508304 -0.0095124144  0.0064203698
N   1.6685547733  0.0160127290  0.0248666076
O   2.2277422853 -1.0128913732  0.1274397295
O   2.2053972958  1.0650497296 -0.0422263705
C  -1.8414235179 -1.2047342806  0.0026008547
H  -2.3352962909 -2.1494549995  0.1113522849
C  -0.5067136208 -1.1842076454  0.0706665797
H   0.0175651129 -2.0900476116 -0.2382045609
14
Step 22  E=-436.5394976519  phi=35.733  theta=72.204
C  -1.8887207666  1.1795103891 -0.0501819968
C  -0.5285415459  1.1699677595 -0.0726686993
C   0.1552505204 -0.0197198789 -0.0438709375
C  -2.5404827074 -0.0255164240 -0.0298847140
H  -2.4328538586  2.1115921221 -0.0377898241
H   0.0025877775  2.0960160374 -0.0884591697
H  -3.6148661294 -0.0128824952  0.0051828105
N   1.6619113485  0.0145727785  0.0244489240
O   2.2311862581 -1.0130905855  0.1279410581
O   2.2039376627  1.0640261533 -0.0428170328
C  -1.8425147052 -1.2015147765  0.0039446562
H  -2.3268462594 -2.1507827091  0.1086310610
C  -0.5037156933 -1.1851322167  0.0749733493
H   0.0093920751 -2.0730742853 -0.2758416775
14
Step 23  E=-436.5381913751  phi=35.932  theta=72.093
C  -1.8895666612  1.1809448576 -0.0505927218
C  -0.5282396281  1.1667714786 -0.0739069303
C   0.1546346900 -0.0157558688 -0.0430463273
C  -2.5362596867 -0.0265801401 -0.0300754649
H  -2.4333111547  2.1129403129 -0.0377837523
H   0.0017886990  2.0918249128 -0.0915922396
H  -3.6098746395 -0.0167587699  0.0036189348
N   1.6548022235  0.0131501725  0.0239376518
O   2.2348217248 -1.0138390498  0.1285064273
O   2.2024996110  1.0634675948 -0.0434654790
C  -1.8441334983 -1.1983167923  0.0055489454
H  -2.3195601768 -2.1527065313  0.1046475025
C  -0.5001500204 -1.1866624190  0.0786375281
H   0.0025381229 -2.0573053808 -0.3092778339
14
Step 24  E=-436.5367812812  phi=36.150  theta=71.979
C  -1.8905130264  1.1824043294 -0.0510413527
C  -0.5276610915  1.1638524464 -0.0751156968
C   0.1543354100 -0.0113735337 -0.0420275273
C  -2.5324428012 -0.0275489763 -0.0301255353
H  -2.4339513007  2.1144986661 -0.0380949969
H   0.0021375024  2.0885793376 -0.0948457616
H  -3.6056226299 -0.0210913964  0.0017207384
N   1.6473872679  0.0117488710  0.0233389609
O   2.2385748530 -1.0150720628  0.1291266872
O   2.2010426721  1.0633320505 -0.0441710213
C  -1.8461263402 -1.1952278418  0.0074214369
H  -2.3136552222 -2.1551371656  0.0993879437
C  -0.4961294245 -1.1886767052  0.0816288031
H  -0.0024720990 -2.0436948940 -0.3384822469
14
Step 25  E=-436.5353005301  phi=36.382  theta=71.863
C  -1.8915230155  1.1838677019 -0.0515278304
C  -0.5268612657  1.1613154877 -0.0762896674
C   0.1543441017 -0.0067405288 -0.0408019897
C  -2.5291084122 -0.0283554550 -0.0300284655
H  -2.4347651470  2.1162397565 -0.0387484145
H   0.0036674221  2.0863454808 -0.0982175258
H  -3.6022107111 -0.0258154981 -0.0005171579
N   1.6398414350  0.0103734958  0.0226610018
O   2.2423663926 -1.0167153163  0.1297914378
O   2.1995233001  1.0635687094 -0.0449326599
C  -1.8483315285 -1.1923463871  0.0095665222
H  -2.3092845760 -2.1578922066  0.0928576251
C  -0.4917688036 -1.1910576705  0.0839247253
H  -0.0052360027 -2.0329958910 -0.3634717425
14
Step 26  E=-436.5338183863  phi=36.622  theta=71.745
C  -1.8925598272  1.1853170103 -0.0520517180
C  -0.5258948577  1.1592726315 -0.0774245146
C   0.1546472385 -0.0020332565 -0.0393593831
C  -2.5263296497 -0.0289341919 -0.0297793184
H  -2.4357299263  2.1181159274 -0.0397664917
H   0.0063250379  2.0850690270 -0.1017025134
H  -3.5996881813 -0.0308517293 -0.0030970574
N   1.6323488113  0.0090299030  0.0219136210
O   2.2461147073 -1.0186889310  0.1304894655
O   2.1978967348  1.0641207856 -0.0457492202
C  -1.8505869152 -1.1897770316  0.0119843525
H  -2.3065368012 -2.1607113594  0.0850846600
C  -0.4871786889 -1.1937003334  0.0855071093
H  -0.0055063984 -2.0256967081 -0.3842553071
14
Step 27  E=-436.5324309497  phi=36.864  theta=71.627
C  -1.8935882295  1.1867382035 -0.0526122237
C  -0.5248137035  1.1578370526 -0.0785168933
C   0.1552263808  0.0025707263 -0.0376922365
C  -2.5241729509 -0.0292260804 -0.0293746141
H  -2.4368108585  2.1200625219 -0.0411693137
H   0.0099796878  2.0845933737 -0.1052923102
H  -3.5980538201 -0.0361073257 -0.0060174461
N   1.6250963963  0.0077253996  0.0211080284
O   2.2497387409 -1.0209111887  0.1312091684
O   2.1961188848  1.0649283440 -0.0466194789
C  -1.8527368817 -1.1876238722  0.0146699799
H  -2.3054415099 -2.1632851284  0.0761240977
C  -0.4824607284 -1.1965174283  0.0863593051
H  -0.0032050481 -2.0219946981 -0.4007912059
14
Step 28  E=-436.5312557991  phi=37.102  theta=71.509
C  -1.8945757835  1.1881215566 -0.0532082409
C  -0.5236650593  1.1571153256 -0.0795643084
C   0.1560579086  0.0069005068 -0.0357964584
C  -2.5226941578 -0.0291826352 -0.0288121994
H  -2.4379643939  2.1220037676 -0.0429745616
H   0.0144425813  2.0846940322 -0.1089749989
H  -3.5972626281 -0.0414777352 -0.0092720560
N   1.6182679383  0.0064685680  0.0202564381
O   2.2531607401 -1.0233017338  0.1319389448
O   2.1941481303  1.0659309551 -0.0475422702
C  -1.8546384001 -1.1859827739  0.0176126930
H  -2.3059789126 -2.1652917818  0.0660608749
C  -0.4777053279 -1.1994412506  0.0864652533
H   0.0015860665 -2.0218108944 -0.4129676323
14
Step 29  E=-436.5304256470  phi=37.329  theta=71.392
C  -1.8954937544  1.1894617213 -0.0538384025
C  -0.5224902944  1.1571989336 -0.0805648726
C   0.1571125769  0.0107993687 -0.0336717014
C  -2.5219345560 -0.0287700538 -0.0280910604
H  -2.4391426697  2.1238605931 -0.0451975263
H   0.0194916834  2.0851219628 -0.1127355806
H  -3.5972371195 -0.0468488990 -0.0128488805
N   1.6120380901  0.0052687381  0.0193717061
O   2.2563086208 -1.0257841337  0.1326675299
O   2.1919469601  1.0670700609 -0.0485165685
C  -1.8561660649 -1.1849335589  0.0207956490
H  -2.3080907715 -2.1664362292  0.0550106748
C  -0.4729911753 -1.2024224675  0.0858105164
H   0.0086520748 -2.0248381540 -0.4206106908
14
Step 30  E=-436.5300751450  phi=37.539  theta=71.277
C  -1.8963177366  1.1907574605 -0.0545011404
C  -0.5213238848  1.1581561277 -0.0815169821
C   0.1583551243  0.0141316080 -0.0313215744
C  -2.5219173030 -0.0279725108 -0.0272110997
H  -2.4402985641  2.1255593085 -0.0478511297
H   0.0248980224  2.0856477624 -0.1165568645
H  -3.5978811194 -0.0521001995 -0.0167293042
N   1.6065670761  0.0041351920  0.0184669868
O   2.2591178974 -1.0282877761  0.1333842703
O   2.1894833815  1.0682909873 -0.0495415474
C  -1.8572160240 -1.1845331376  0.0241958453
H  -2.3116907695 -2.1664847983  0.0431182454
C  -0.4683860492 -1.2054269297  0.0843848063
H   0.0176833639 -2.0306088444 -0.4235142658
14
Step 31  E=-436.5303184699  phi=37.728  theta=71.167
C  -1.8970280300  1.1920111347 -0.0551947445
C  -0.5201926775  1.1600251466 -0.0824189482
C   0.1597441968  0.0167881441 -0.0287537222
C  -2.5226446729 -0.0267942207 -0.0261729089
H  -2.4413906842  2.1270400258 -0.0509459387
H   0.0304497147  2.0860997832 -0.1204206766
H  -3.5990938754 -0.0571080162 -0.0208874901
N   1.6019959862  0.0030762333  0.0175554270
O   2.2615331579 -1.0307491596  0.1340793352
O   2.1867320751  1.0695445770 -0.0506166175
C  -1.8577087601 -1.1848104729  0.0277844229
H  -2.3166730020 -2.1652913624  0.0305533278
C  -0.4639482231 -1.2084316648  0.0821851596
H   0.0283162582 -2.0385672177 -0.4214808654
14
Step 32  E=-436.5312239080  phi=37.892  theta=71.061
C  -1.8976098174  1.1932280156 -0.0559174169
C  -0.5191154852  1.1628095941 -0.0832686362
C   0.1612328442  0.0186905295 -0.0259797982
C  -2.5240964551 -0.0252599509 -0.0249775736
H  -2.4423876162  2.1282636531 -0.0544901582
H   0.0359710322  2.0863913848 -0.1243091933
H  -3.6007824158 -0.0617497478 -0.0252901085
N   1.5984427635  0.0020982240  0.0166499136
O   2.2635091095 -1.0331126723  0.1347438697
O   2.1836752925  1.0707884599 -0.0517414496
C  -1.8575907191 -1.1857639940  0.0315272527
H  -2.3229178459 -2.1628119405  0.0175048545
C  -0.4597279036 -1.2114209914  0.0792189060
H   0.0401698716 -2.0481348686 -0.4143622636
14
Step 33  E=-436.5327922221  phi=38.027  theta=70.963
C  -1.8980531904  1.1944155193 -0.0566673190
C  -0.5181030793  1.1664764677 -0.0840631606
C   0.1627697510  0.0197931038 -0.0230153581
C  -2.5262297029 -0.0234138601 -0.0236265451
H  -2.4432709271  2.1292165998 -0.0584895780
H   0.0413348461  2.0865347446 -0.1282061878
H  -3.6028706354 -0.0659080843 -0.0298964287
N   1.5959989156  0.0012047066  0.0157628839
O   2.2650112534 -1.0353309925  0.1353701024
O   2.1803035025  1.0719879934 -0.0529159861
C  -1.8568348567 -1.1873617361  0.0353857334
H  -2.3302948405 -2.1591066738  0.0041744073
C  -0.4557683641 -1.2143833097  0.0755058471
H   0.0528755464 -2.0587626890 -0.4020920428
14
Step 34  E=-436.5349486645  phi=38.133  theta=70.873
C  -1.8983530669  1.1955824225 -0.0574426111
C  -0.5171586009  1.1709570285 -0.0847986825
C   0.1643012104  0.0200832327 -0.0198796907
C  -2.5289798634 -0.0213167832 -0.0221216029
H  -2.4440365013  2.1299124935 -0.0629474460
H   0.0464675212  2.0866402348 -0.1320979738
H  -3.6053040375 -0.0694752514 -0.0346587374
N   1.5947269675  0.0003956914  0.0149062019
O   2.2660162646 -1.0373652350  0.1359514147
O   2.1766158052  1.0731169222 -0.0541404487
C  -1.8554402449 -1.1895441189  0.0393177182
H  -2.3386623856 -2.1543294191 -0.0092299889
C  -0.4521066177 -1.2173087921  0.0710793699
H   0.0660975988 -2.0699668418 -0.3847060425
14
Step 35  E=-436.5375495119  phi=38.210  theta=70.791
C  -1.8985090301  1.1967381335 -0.0582414874
C  -0.5162782900  1.1761503983 -0.0854703419
C   0.1657736954  0.0195797634 -0.0165955983
C  -2.5322631742 -0.0190422959 -0.0204649213
H  -2.4446940727  2.1303906889 -0.0678642341
H   0.0513459812  2.0869016645 -0.1359738324
H  -3.6080498171 -0.0723569322 -0.0395229935
N   1.5946586748 -0.0003328224  0.0140910954
O   2.2665121493 -1.0391849562  0.1364823880
O   2.1726201407  1.0741577916 -0.0554153426
C  -1.8534309485 -1.1922289449  0.0432784816
H  -2.3478644346 -2.1487067447 -0.0224988170
C  -0.4487735776 -1.2201880079  0.0659864827
H   0.0795455862 -2.0813488224 -0.3623499968
14
Step 36  E=-436.5404011316  phi=38.258  theta=70.720
C  -1.8985251069  1.1978920548 -0.0590622075
C  -0.5154523611  1.1819295039 -0.0860723469
C   0.1671367429  0.0183300017 -0.0131891330
C  -2.5359800930 -0.0166720348 -0.0186592315
H  -2.4452649711  2.1307116418 -0.0732372661
H   0.0559871391  2.0875687754 -0.1398257411
H  -3.6110924929 -0.0744755841 -0.0444296101
N   1.5957940295 -0.0009890401  0.0133281430
O   2.2664982284 -1.0407681035  0.1369588398
O   2.1683333178  1.0751021445 -0.0567414619
C  -1.8508543769 -1.1953179204  0.0472216420
H  -2.3577248445 -2.1425094115 -0.0354242526
C  -0.4457937234 -1.2230114523  0.0602868893
H   0.0929784946 -2.0926005734 -0.3352756314
14
Step 37  E=-436.5432844241  phi=38.280  theta=70.659
C  -1.8984094829  1.1990530612 -0.0599031281
C  -0.5146658505  1.1881487618 -0.0865982162
C   0.1683458029  0.0164056112 -0.0096892906
C  -2.5400194483 -0.0142907980 -0.0167080640
H  -2.4457783591  2.1309496615 -0.0790601865
H   0.0604305898  2.0889098551 -0.1436472948
H  -3.6144259180 -0.0757729377 -0.0493142517
N   1.5981010978 -0.0015852530  0.0126272966
O   2.2659850021 -1.0421009627  0.1373778634
O   2.1637808532  1.0759505205 -0.0581198983
C  -1.8477792617 -1.1987038238  0.0510999847
H  -2.3680407510 -2.1360207267 -0.0478015688
C  -0.4431843156 -1.2257699556  0.0540513092
H   0.1062007397 -2.1034961685 -0.3038279126
14
Step 38  E=-436.5459791490  phi=38.280  theta=70.609
C  -1.8981741388  1.2002290899 -0.0607627359
C  -0.5138993377  1.1946526967 -0.0870411552
C   0.1693646889  0.0138978659 -0.0061276644
C  -2.5442629627 -0.0119819179 -0.0146160346
H  -2.4462664090  2.1311838526 -0.0853222704
H   0.0647166617  2.0911690577 -0.1474318534
H  -3.6180429457 -0.0762115593 -0.0541085614
N   1.6015167202 -0.0021373790  0.0119979190
O   2.2649938955 -1.0431781378  0.1377378612
O   2.1589965973  1.0767122610 -0.0595520511
C  -1.8442933027 -1.2022773859  0.0548661784
H  -2.3785769990 -2.1295069650 -0.0594291576
C  -0.4409542957 -1.2284559075  0.0473593095
H   0.1190496544 -2.1138722904 -0.2684271474
14
Step 39  E=-436.5482826019  phi=38.262  theta=70.570
C  -1.8978343768  1.2014268258 -0.0616396837
C  -0.5131295647  1.2012845645 -0.0873945165
C   0.1701673296  0.0109126609 -0.0025380594
C  -2.5485897937 -0.0098232870 -0.0123891405
H  -2.4467590736  2.1314883888 -0.0920076005
H   0.0688634609  2.0945246869 -0.1511701464
H  -3.6219244287 -0.0757754943 -0.0587407751
N   1.6059481090 -0.0026641316  0.0114488137
O   2.2635568697 -1.0440025834  0.1380385704
O   2.1540221347  1.0774050954 -0.0610396390
C  -1.8405004179 -1.2059330679  0.0584734296
H  -2.3890640186 -2.1231949676 -0.0701078565
C  -0.4391030130 -1.2310650841  0.0402970054
H   0.1313769068 -2.1236003521 -0.2295498230
14
Step 40  E=-436.5500235440  phi=38.229  theta=70.541
C  -1.8974082039  1.2026514411 -0.0625328256
C  -0.5123301083  1.2078940269 -0.0876522826
C   0.1707386453  0.0075655974  0.0010439376
C  -2.5528807781 -0.0078842535 -0.0100350297
H  -2.4472791493  2.1319233244 -0.0990941745
H   0.0728475316  2.0990554845 -0.1548477689
H  -3.6260293472 -0.0744701295 -0.0631362332
N   1.6112753362 -0.0031858249  0.0109882307
O   2.2617159497 -1.0445856242  0.1382811019
O   2.1489059604  1.0780544638 -0.0625847071
C  -1.8365174571 -1.2095731986  0.0618761525
H  -2.3992013304 -2.1172606640 -0.0796405372
C  -0.4376188822 -1.2335986391  0.0329550297
H   0.1430293053 -2.1325535385 -0.1877116869
14
Step 41  E=-436.5510713489  phi=38.187  theta=70.524
C  -1.8969155339  1.2039063434 -0.0634412450
C  -0.5114723408  1.2143430823 -0.0878095067
C   0.1710744963  0.0039773666  0.0045814554
C  -2.5570221334 -0.0062234471 -0.0075632143
H  -2.4478383686  2.1325272098 -0.1065530437
H   0.0765925923  2.1047213137 -0.1584431337
H  -3.6302878244 -0.0723214946 -0.0672178737
N   1.6173546707 -0.0037228097  0.0106238192
O   2.2595225684 -1.0449469453  0.1384679638
O   2.1437024240  1.0786925204 -0.0641896192
C  -1.8324702632 -1.2131102987  0.0650307261
H  -2.4086679570 -2.1118297923 -0.0878330790
C  -0.4364784475 -1.2360646816  0.0254270472
H   0.1538327334 -2.1405755338 -0.1434569507
14
Step 42  E=-436.5513449284  phi=38.139  theta=70.518
C  -1.8963771911  1.2051928842 -0.0643642613
C  -0.5105269039  1.2205097850 -0.0878626609
C   0.1711808153  0.0002695198  0.0080369329
C  -2.5609084503 -0.0048874747 -0.0049852080
H  -2.4484350756  2.1333124612 -0.1143476112
H   0.0799692772  2.1113620086 -0.1619264106
H  -3.6345983164 -0.0693752282 -0.0709068284
N   1.6240226827 -0.0042935799  0.0103625140
O   2.2570366911 -1.0451144975  0.1386030531
O   2.1384704293  1.0793567758 -0.0658570236
C  -1.8284890757 -1.2164677566  0.0678963669
H  -2.4171394825 -2.1069891294 -0.0944975997
C  -0.4356465253 -1.2384788854  0.0178088543
H   0.1635795972 -2.1474617244 -0.0973560335
14
Step 43  E=-436.5508232616  phi=38.091  theta=70.521
C  -1.8958137392  1.2065100013 -0.0653014058
C  -0.5094657598  1.2262897103 -0.0878098623
C   0.1710721348 -0.0034393446  0.0113728316
C  -2.5644448887 -0.0039103581 -0.0023145746
H  -2.4490538493  2.1342641065 -0.1224332187
H   0.0828065012  2.1187144118 -0.1652598273
H  -3.6388296688 -0.0656953974 -0.0741232601
N   1.6311009938 -0.0049126692  0.0102103499
O   2.2543256908 -1.0451242006  0.1386915983
O   2.1332719043  1.0800883726 -0.0675897852