14
Step 0  E=-436.5547782004  phi=146.068  theta=71.512
C  -1.8805652552  1.1909017817 -0.1057585139
C  -0.4794715046  1.2078372545 -0.0932750403
C   0.1966401409  0.0145569134  0.0023846407
C  -2.5642959748 -0.0218638859 -0.0468418040
H  -2.4311473238  2.0995529686 -0.2138944694
H   0.0530263745  2.1212218755 -0.1415791865
H  -3.6674919998 -0.0425624089 -0.0407383307
N   1.6491364568  0.0162667751  0.0161085049
O   2.2130614508 -1.0523327511  0.1056278005
O   2.2119561956  1.0850105174 -0.0346591475
C  -1.8804516261 -1.1895718198  0.0576935822
H  -2.4226547006 -2.1434862918  0.0990085454
C  -0.4821044713 -1.2377775284  0.0660164549
H   0.0887289316 -2.1171680225  0.1622562935
14
Step 1  E=-436.5401421581  phi=146.618  theta=71.846
C  -1.8749750864  1.1919420227 -0.0918804705
C  -0.4608807611  1.2078098483 -0.0909344885
C   0.2157776622  0.0272859198  0.0016091295
C  -2.5585366599 -0.0243453620 -0.0475883727
H  -2.4289127999  2.0784513739 -0.2310334360
H   0.0459378168  2.1134277630 -0.1322436502
H  -3.6770412666 -0.0579989267 -0.0162879877
N   1.6452971019  0.0203131529  0.0026979727
O   2.2044696937 -1.0475392108  0.0958330322
O   2.2157189920  1.0801999653 -0.0331290313
C  -1.8892768306 -1.1625487564  0.0629035496
H  -2.4370868131 -2.1277226018  0.0884274625
C  -0.4806344737 -1.2595311296  0.0539022675
H   0.0907639575 -2.1068354448  0.1698904109
14
Step 2  E=-436.5197057110  phi=147.147  theta=72.171
C  -1.8689949486  1.1925368463 -0.0781533636
C  -0.4430371251  1.2076023877 -0.0885398911
C   0.2341455433  0.0389954682  0.0008182594
C  -2.5533897728 -0.0258933556 -0.0482728127
H  -2.4275200210  2.0605849228 -0.2478029678
H   0.0421185130  2.1106916210 -0.1233479413
H  -3.6817192386 -0.0728670958  0.0073909485
N   1.6418217182  0.0242998883 -0.0106181468
O   2.1957914490 -1.0427589939  0.0860384816
O   2.2195309944  1.0754937910 -0.0316414202
C  -1.8973687096 -1.1369569134  0.0680776947
H  -2.4504377175 -2.1092682362  0.0782395912
C  -0.4794582754 -1.2796201995  0.0418431713
H   0.0954228771 -2.1029773951  0.1776984188
14
Step 3  E=-436.4978926129  phi=147.639  theta=72.490
C  -1.8624836259  1.1925775047 -0.0646371073
C  -0.4262537038  1.2071996537 -0.0860691997
C   0.2514778658  0.0493340838 -0.0000178813
C  -2.5491765534 -0.0260049781 -0.0488591426
H  -2.4274277606  2.0473196279 -0.2641197877
H   0.0427147548  2.1148593202 -0.1150348993
H  -3.6804827640 -0.0867263921  0.0298556692
N   1.6388249626  0.0282000423 -0.0237864722
O   2.1870644279 -1.0380748033  0.0762325364
O   2.2234379908  1.0709966426 -0.0302156986
C  -1.9043145859 -1.1135399757  0.0732056028
H  -2.4624724215 -2.0874594116  0.0687118047
C  -0.4787399406 -1.2974827463  0.0298584864
H   0.1039063824 -2.1080515274  0.1859400541
14
Step 4  E=-436.4780236878  phi=148.078  theta=72.802
C  -1.8553608627  1.1920390438 -0.0513975872
C  -0.4107540410  1.2066835606 -0.0835051769
C   0.2675264965  0.0580301796 -0.0009305441
C  -2.5461669410 -0.0241967422 -0.0493190294
H  -2.4286332177  2.0392536157 -0.2798313136
H   0.0481148720  2.1264720224 -0.1073765758
H  -3.6729645007 -0.0991136347  0.0506839319
N   1.6364266201  0.0319872628 -0.0367574322
O   2.1783314764 -1.0335720884  0.0664031287
O   2.2274863026  1.0668093275 -0.0288694594
C  -1.9097141266 -1.0929864667  0.0782806368
H  -2.4731201902 -2.0621141912  0.0601234478
C  -0.4785556353 -1.3127870574  0.0179851134
H   0.1163206821 -2.1226738822  0.1947140631
14
Step 5  E=-436.4612997517  phi=148.451  theta=73.109
C  -1.8476158224  1.1909864895 -0.0385127179
C  -0.3966627026  1.2062409373 -0.0808342191
C   0.2820574228  0.0648875099 -0.0019506109
C  -2.5445463613 -0.0200574086 -0.0496288667
H  -2.4306076906  2.0361622519 -0.2946255156
H   0.0579126786  2.1445571082 -0.1003885306
H  -3.6594794286 -0.1095571588  0.0695127120
N   1.6347454694  0.0356373633 -0.0494859123
O   2.1696409696 -1.0293382930  0.0565379033
O   2.2317212685  1.0630260897 -0.0276184359
C  -1.9132135204 -1.0758682122  0.0832956546
H  -2.4824707671 -2.0335545261  0.0527434611
C  -0.4788657416 -1.3254365674  0.0062899289
H   0.1314714235 -2.1454687576  0.2037781293
14
Step 6  E=-436.4475432887  phi=148.747  theta=73.412
C  -1.8393004014  1.1895606244 -0.0260732229
C  -0.3840174713  1.2061289946 -0.0780442004
C   0.2948503506  0.0697815657 -0.0031076868
C  -2.5443788982 -0.0133037157 -0.0497648599
H  -2.4323906770  2.0371692164 -0.3080024360
H   0.0711132759  2.1669280661 -0.0940560581
H  -3.6410321484 -0.1175989862  0.0860743938
N   1.6338918556  0.0391300970 -0.0619315766
O   2.1610467538 -1.0254619125  0.0466244135
O   2.2361856641  1.0597321423 -0.0264765265
C  -1.9145382225 -1.0625784057  0.0882364571
H  -2.4907755725 -2.0026079236  0.0468103248
C  -0.4795402138 -1.3355121441 -0.0051313094
H   0.1472183693 -2.1736526990  0.2125378464
14
Step 7  E=-436.4364207946  phi=148.958  theta=73.712
C  -1.8305117585  1.1879513238 -0.0141774243
C  -0.3727924569  1.2066158671 -0.0751227535
C   0.3057018945  0.0726563607 -0.0044299579
C  -2.5455764421 -0.0038247203 -0.0496982818
H  -2.4327942514  2.0410505556 -0.3193199722
H   0.0864512590  2.1908004434 -0.0883558966
H  -3.6193190809 -0.1228276867  0.1002313005
N   1.6339593591  0.0424508503 -0.0740587850
O   2.1526075569 -1.0220313201  0.0366503221
O   2.2409181519  1.0570015610 -0.0254558850
C  -1.9135180134 -1.0532837361  0.0930751526
H  -2.4984524073 -1.9705831831  0.0425149822
C  -0.4804118957 -1.3431886592 -0.0161672806
H   0.1611154422 -2.2039263909  0.2201907016
14
Step 8  E=-436.4279714559  phi=149.079  theta=74.008
C  -1.8213718210  1.1863697235 -0.0029226124
C  -0.3629197732  1.2079245076 -0.0720566716
C   0.3144317497  0.0735206809 -0.0059445605
C  -2.5478873583  0.0083001692 -0.0493933052
H  -2.4306273273  2.0465409023 -0.3278841148
H   0.1026685006  2.2134007477 -0.0832657000
H  -3.5966861875 -0.1249199644  0.1120036112
N   1.6350161390  0.0455919013 -0.0858361107
O   2.1443859811 -1.0191333044  0.0266036071
O   2.2459518809  1.0548955764 -0.0245670532
C  -1.9100984294 -1.0479075761  0.0977662742
H  -2.5060787708 -1.9391960298  0.0399882839
C  -0.4813230507 -1.3486671037 -0.0267069883
H   0.1709555768 -2.2331920150  0.2259074256
14
Step 9  E=-436.4225854241  phi=149.108  theta=74.301
C  -1.8120095942  1.1850269202  0.0076035528
C  -0.3543042023  1.2101977380 -0.0688323092
C   0.3208914058  0.0724429044 -0.0076782338
C  -2.5509155911  0.0228155679 -0.0488082763
H  -2.4248710239  2.0525569098 -0.3330420286
H   0.1186819890  2.2323715518 -0.0787640210
H  -3.5759704218 -0.1236791637  0.1215763198
N   1.6370968244  0.0485529929 -0.0972355342
O   2.1364473513 -1.0168512143  0.0164727595
O   2.2513133353  1.0534612581 -0.0238191137
C  -1.9043370371 -1.0461533440  0.1022474472
H  -2.5143455152 -1.9104096084  0.0392970592
C  -0.4821495030 -1.3521371784 -0.0366509257
H   0.1750556164 -2.2589229286  0.2289603952
14
Step 10  E=-436.4208792266  phi=149.047  theta=74.590
C  -1.8025479386  1.1841207839  0.0173295519
C  -0.3468323360  1.2134853613 -0.0654364678
C   0.3249738951  0.0695441744 -0.0096580021
C  -2.5541747547  0.0393302018 -0.0478985242
H  -2.4147837887  2.0583208344 -0.3342525539
H   0.1336541341  2.2459583235 -0.0748266609
H  -3.5601463457 -0.1190467580  0.1292631922
N   1.6401961957  0.0513410535 -0.1082314374
O   2.1288582302 -1.0152628181  0.0062469574
O   2.2570214788  1.0527305418 -0.0232198539
C  -1.8963903658 -1.0475653667  0.1064442650
H  -2.5239393931 -1.8861677879  0.0404541025
C  -0.4828056471 -1.3537637896 -0.0459164142
H   0.1723279333 -2.2792650599  0.2287828336
14
Step 11  E=-436.4234314710  phi=148.903  theta=74.874
C  -1.7930939804  1.1838289924  0.0262040436
C  -0.3403795960  1.2177460970 -0.0618573670
C   0.3266228073  0.0649903157 -0.0119116352
C  -2.5571703706  0.0573668821 -0.0466173894
H  -2.3999491128  2.0634089831 -0.3311292991
H   0.1470085845  2.2530555467 -0.0714233471
H  -3.5517614739 -0.1110608543  0.1354128402
N   1.6442659490  0.0539688856 -0.1187995798
O   2.1216847262 -1.0144378445 -0.0040837985
O   2.2630871987  1.0527195832 -0.0227759384
C  -1.8865002749 -1.0516109784  0.1102773039
H  -2.5353460638 -1.8680505913  0.0434429872
C  -0.4832393118 -1.3536853968 -0.0544393648
H   0.1622483252 -2.2930103249  0.2249831625
14
Step 12  E=-436.4302324011  phi=148.684  theta=75.153
C  -1.7837319254  1.1843053907  0.0341979853
C  -0.3348175754  1.2228563973 -0.0580854922
C   0.3258387522  0.0589831891 -0.0144676768
C  -2.5594890005  0.0764069763 -0.0449140793
H  -2.3802888494  2.0677592041 -0.3234627189
H   0.1584289676  2.2531943959 -0.0685162597
H  -3.5522931911 -0.0997618710  0.1402755960
N   1.6492155023  0.0564528189 -0.1289162623
O   2.1149906377 -1.0144352068 -0.0145286058
O   2.2695130188  1.0534284304 -0.0224930853
C  -1.8749846927 -1.0577592808  0.1136690830
H  -2.5486206126 -1.8569546659  0.0482482763
C  -0.4834237944 -1.3520153414 -0.0621749051
H   0.1448018954 -2.2995450694  0.2173425384
14
Step 13  E=-436.4401794712  phi=148.401  theta=75.426
C  -1.7745178320  1.1856771250  0.0413054958
C  -0.3300226098  1.2286206616 -0.0541142234
C   0.3226819340  0.0517521205 -0.0173549075
C  -2.5608634179  0.0959238510 -0.0427313662
H  -2.3560597516  2.0716626323 -0.3112289571
H   0.1678621854  2.2465239568 -0.0660606533
H  -3.5617061902 -0.0850946170  0.1438937501
N   1.6549171312  0.0588095478 -0.1385578575
O   2.1088354628 -1.0153000227 -0.0250956440
O   2.2762930294  1.0548410163 -0.0223762488
C  -1.8622295219 -1.0655350698  0.1165502178
H  -2.5632277449 -1.8529352636  0.0548734266
C  -0.4833512732 -1.3488415030 -0.0690983301
H   0.1204467642 -2.2988277446  0.2058133658
14
Step 14  E=-436.4511589925  phi=148.068  theta=75.693
C  -1.7654768207  1.1880411403  0.0475437504
C  -0.3258852994  1.2347803812 -0.0499402150
C   0.3172704471  0.0435457772 -0.0206012317
C  -2.5611901912  0.1154087722 -0.0400078143
H  -2.3278398926  2.0757499285 -0.2945891321
H   0.1755338605  2.2338051370 -0.0640074900
H  -3.5784546009 -0.0668779000  0.1460823127
N   1.6612149116  0.0610525619 -0.1477008024
O   2.1032724538 -1.0170605812 -0.0357922210
O   2.2834129977  1.0569254867 -0.0224298009
C  -1.8486749993 -1.0745386769  0.1188647953
H  -2.5780467422 -1.8552823531  0.0633337087
C  -0.4830293131 -1.3442225205 -0.0752068151
H   0.0901055386 -2.2914159712  0.1905255082
14
Step 15  E=-436.4607680681  phi=147.699  theta=75.952
C  -1.7566038834  1.1914604190  0.0529516389
C  -0.3223197098  1.2410227074 -0.0455635369
C   0.3097748829  0.0346246729 -0.0242321332
C  -2.5605004911  0.1343933073 -0.0366855414
H  -2.2965003469  2.0809661309 -0.2738766302
H   0.1819712860  2.2164075004 -0.0623079767
H  -3.5999208355 -0.0448671342  0.1465101046
N   1.6679361811  0.0631887406 -0.1563220421
O   2.0983468101 -1.0197255987 -0.0466248472
O   2.2908506478  1.0596348708 -0.0226577116
C  -1.8347938417 -1.0844378599  0.1205747815
H  -2.5915502815 -1.8627777682  0.0736284957
C  -0.4824805444 -1.3381807968 -0.0805214623
H   0.0551725517 -2.2785382557  0.1717972095
14
Step 16  E=-436.4672057860  phi=147.307  theta=76.203
C  -1.7478694809  1.1959620464  0.0575865664
C  -0.3192701683  1.2469913129 -0.0409875904
C   0.3004101604  0.0252544028 -0.0282689056
C  -2.5589078047  0.1524687464 -0.0327197749
H  -2.2631486904  2.0885126078 -0.2495648134
H   0.1880152749  2.1962715757 -0.0609194607
H  -3.6230422320 -0.0188656368  0.1448261457
N   1.6749038305  0.0652156942 -0.1643998005
O   2.0940941361 -1.0232821505 -0.0575992992
O   2.2985761237  1.0629080875 -0.0230637226
C  -1.8210654258 -1.0949475449  0.1216628082
H  -2.6020733035 -1.8740028074  0.0857099347
C  -0.4817435216 -1.3306952231 -0.0850883294
H   0.0175042921 -2.2621737078  0.1501370223
14
Step 17  E=-436.4699597558  phi=146.906  theta=76.446
C  -1.7392305147  1.2015401286  0.0615188099
C  -0.3167123792  1.2523048094 -0.0362189289
C   0.2894264901  0.0156997791 -0.0327269876
C  -2.5565573591  0.1692992986 -0.0280855074
H  -2.2290285328  2.0997238527 -0.2222070927
H   0.1947854183  2.1757740560 -0.0598109953
H  -3.6448571707  0.0111803294  0.1407664137
N   1.6819478231  0.0671202414 -0.1719145314
O   2.0905394807 -1.0276945190 -0.0687206443
O   2.3065526667  1.0666713037 -0.0236515028
C  -1.8079526256 -1.1058100266  0.1221327950
H  -2.6080661892 -1.8875869035  0.0994626275
C  -0.4808701135 -1.3217012872 -0.0889761375
H  -0.0206596190 -2.2450511868  0.1262104060
14
Step 18  E=-436.4701040367  phi=146.510  theta=76.680
C  -1.7306465733  1.2081673286  0.0648235150
C  -0.3146448106  1.2565888037 -0.0312673210
C   0.2771007354  0.0062202416 -0.0376146976
C  -2.5535903360  0.1846282122 -0.0227795889
H  -2.1953703584  2.1158526943 -0.1923503104
H   0.2035523916  2.1574289181 -0.0589648906
H  -3.6628488571  0.0451358134  0.1342113863
N   1.6889146639  0.0688782366 -0.1788499056
O   2.0876969286 -1.0329042992 -0.0799931834
O   2.3147375037  1.0708396131 -0.0244247742
C  -1.7958841490 -1.1167817605  0.1220086051
H  -2.6082723184 -1.9023591348  0.1146985971
C  -0.4799145978 -1.3111104136 -0.0922679724
H  -0.0569088127 -2.2304201909  0.1007406890
14
Step 19  E=-436.4698697965  phi=146.129  theta=76.904
C  -1.7220984153  1.2158145160  0.0675721332
C  -0.3130683360  1.2595226097 -0.0261464247
C   0.2637289767 -0.0029329490 -0.0429325037
C  -2.5501229829  0.1982771530 -0.0168190794
H  -2.1632157925  2.1377741981 -0.1604426358
H   0.2154886192  2.1434099971 -0.0583689057
H  -3.6751038057  0.0826765716  0.1251995781
N   1.6956740718  0.0704556678 -0.1851936862
O   2.0855698848 -1.0388317528 -0.0914203189
O   2.3230829363  1.0753189927 -0.0253873939
C  -1.7852419398 -1.1276266571  0.1213313068
H  -2.6018266266 -1.9174193593  0.1311644374
C  -0.4789123856 -1.2988610957 -0.0950464074
H  -0.0890304914 -2.2214493900  0.0743383657
14
Step 20  E=-436.4712834792  phi=145.774  theta=77.119
C  -1.7136031224  1.2244725442  0.0698266350
C  -0.3119581431  1.2608909639 -0.0208752350
C   0.2496207239 -0.0115174121 -0.0486728819
C  -2.5462358193  0.2101410085 -0.0102377650
H  -2.1332692303  2.1656845675 -0.1267767459
H   0.2313376284  2.1350077584 -0.0579963700
H  -3.6803572493  0.1233144055  0.1139148444
N   1.7021227291  0.0718108342 -0.1909384174
O   2.0841518470 -1.0453784215 -0.1030043412
O   2.3315375650  1.0800084826 -0.0265433826
C  -1.7763506423 -1.1381139234  0.1201555449
H  -2.5883013990 -1.9321641727  0.1485564950
C  -0.4778563881 -1.2849979476 -0.0973772756
H  -0.1154394672 -2.2202994988  0.0473219601
14
Step 21  E=-436.4746680042  phi=145.455  theta=77.322
C  -1.7052199498  1.2341659208  0.0716394375
C  -0.3112399639  1.2606201876 -0.0154797416
C   0.2350948770 -0.0192985167 -0.0548206863
C  -2.5419682265  0.2201796475 -0.0030822442
H  -2.1058375237  2.1989223370 -0.0915036245
H   0.2511363446  2.1322600461 -0.0577801571
H  -3.6779915743  0.1664327182  0.1006620485
N   1.7081855198  0.0728972070 -0.1960819148
O   2.0834275529 -1.0524307093 -0.1147461707
O   2.3400475557  1.0848024894 -0.0278968930
C  -1.7694663975 -1.1480177038  0.1185450012
H  -2.5677274532 -1.9462979514  0.1665422325
C  -0.4766894559 -1.2697434247 -0.0993025376
H  -0.1354496077 -2.2272781130  0.0196561114
14
Step 22  E=-436.4784681930  phi=145.180  theta=77.512
C  -1.6970441753  1.2449498017  0.0730589826
C  -0.3107844794  1.2587804506 -0.0099935375
C   0.2204767606 -0.0260475909 -0.0613540346
C  -2.5373155036  0.2284079167  0.0045916623
H  -2.0808806403  2.2360112169 -0.0547133394
H   0.2741450945  2.1339683584 -0.0575950496
H  -3.6680264736  0.2113255761  0.0858380921
N   1.7138147719  0.0736666131 -0.2006275341
O   2.0833742929 -1.0598641330 -0.1266450865
O   2.3485578138  1.0895931115 -0.0294521120
C  -1.7647642351 -1.1571169122  0.1165668776
H  -2.5406054477 -1.9598455039  0.1847877119
C  -0.4753262940 -1.2535142663 -0.1008479863
H  -0.1492134560 -2.2406381994 -0.0089206814
14
Step 23  E=-436.4805771278  phi=144.956  theta=77.687
C  -1.6891917302  1.2568907619  0.0741374135
C  -0.3104236794  1.2555548413 -0.0044564363
C   0.2060953339 -0.0315414723 -0.0682456774
C  -2.5322275260  0.2348847656  0.0127220900
H  -2.0581393228  2.2749141119 -0.0165377640
H   0.2990289006  2.1380901384 -0.0572605843
H  -3.6511110306  0.2572397745  0.0698999844
N   1.7189880767  0.0740724400 -0.2045842296
O   2.0839632907 -1.0675478426 -0.1386984886
O   2.3570131574  1.0942723373 -0.0312131555
C  -1.7623263246 -1.1651941157  0.1142856299
H  -2.5079033689 -1.9731670034  0.2029907375
C  -0.4736958935 -1.2368690047 -0.1020389004
H  -0.1573979008 -2.2571743416 -0.0386641359
14
Step 24  E=-436.4797641291  phi=144.789  theta=77.848
C  -1.6817806250  1.2700404242  0.0749360698
C  -0.3099801940  1.2511942058  0.0010886326
C   0.1922793942 -0.0355655411 -0.0754647445
C  -2.5266102432  0.2397019493  0.0212441721
H  -2.0372775432  2.3133855699  0.0227743863
H   0.3241813554  2.1422849007 -0.0565629625
H  -3.6285034128  0.3034212333  0.0533290301
N   1.7237051220  0.0740725207 -0.2079664375
O   2.0851610140 -1.0753490429 -0.1509017311
O   2.3653592692  1.0987341095 -0.0331839211
C  -1.7621361868 -1.1720341325  0.1117569357
H  -2.4710172310 -1.9869577821  0.2209166921
C  -0.4717806119 -1.2204219631 -0.1029111821
H  -0.1608292214 -2.2731881595 -0.0696471305
14
Step 25  E=-436.4761793654  phi=144.685  theta=77.994
C  -1.6749142738  1.2844124711  0.0755268883
C  -0.3092959654  1.2459781497  0.0065993563
C   0.1793518804 -0.0379215003 -0.0829788800
C  -2.5203328636  0.2429730803  0.0300931685
H  -2.0179918215  2.3492958315  0.0628337631
H   0.3480370450  2.1443765931 -0.0552829773
H  -3.6020026769  0.3491644310  0.0365908957
N   1.7279839872  0.0736314650 -0.2107938132
O   2.0869303485 -1.0831370248 -0.1632480427
O   2.3735434427  1.1028761636 -0.0353678555
C  -1.7640845119 -1.1774257539  0.1090234858
H  -2.4316599686 -2.0021942876  0.2384285124
C  -0.4696348374 -1.2047680688 -0.1035129124
H  -0.1602698078 -2.2852891297 -0.1017101382
14
Step 26  E=-436.4710869511  phi=144.647  theta=78.125
C  -1.6686689827  1.2999684928  0.0759904250
C  -0.3082519093  1.2401911114  0.0120372646
C   0.1676216863 -0.0384408429 -0.0907563494
C  -2.5132441608  0.2448245122  0.0392075290
H  -2.0000720437  2.3808570008  0.1031325076
H   0.3692843571  2.1426292630 -0.0532190506
H  -3.5737854467  0.3938540984  0.0200962904
N   1.7318570956  0.0727224246 -0.2130908668
O   2.0892317266 -1.0907866412 -0.1757285462
O   2.3815155679  1.1066014321 -0.0377677968
C  -1.7679897857 -1.1811721785  0.1061142901
H  -2.3916535324 -2.0199729816  0.2554923669
C  -0.4673806110 -1.1904348238 -0.1038998865
H  -0.1563369959 -2.2908166096 -0.1345039960
14
Step 27  E=-436.4662525133  phi=144.678  theta=78.244
C  -1.6630859354  1.3166125279  0.0764120843
C  -0.3067785384  1.2341117673  0.0173700215
C   0.1573730454 -0.0370037363 -0.0987679576
C  -2.5051998883  0.2453903345  0.0485310391
H  -1.9834236461  2.4067467338  0.1430917096
H   0.3869696591  2.1358627725 -0.0502019165
H  -3.5461154323  0.4369760358  0.0041739399
N   1.7353669785  0.0713281121 -0.2148865491
O   2.0920241108 -1.0981811035 -0.1883323713
O   2.3892283082  1.1098194524 -0.0403857915
C  -1.7736307956 -1.1831139273  0.1030486301
H  -2.3526455420 -2.0412124069  0.2721366548
C  -0.4651872680 -1.1778547314 -0.1041300907
H  -0.1495026758 -2.2879593012 -0.1675626665
14
Step 28  E=-436.4631849198  phi=144.778  theta=78.355
C  -1.6581674757  1.3341916327  0.0768777408
C  -0.3048593105  1.2280097911  0.0225729885
C   0.1488537898 -0.0335608363 -0.1069883563
C  -2.4960983643  0.2448136108  0.0580128377
H  -1.9680690706  2.4261606309  0.1821154574
H   0.4005355787  2.1234751041 -0.0461010570
H  -3.5209522785  0.4780739337 -0.0109272952
N   1.7385622198  0.0694413653 -0.2162137898
O   2.0952657228 -1.1052141532 -0.2010468384
O   2.3966375329  1.1124473177 -0.0432228626
C  -1.7807803461 -1.1831606662  0.0998443809
H  -2.3158393295 -2.0662726249  0.2883646797
C  -0.4632445220 -1.1673459842 -0.1042599122
H  -0.1401176886 -2.2757313637 -0.2003698985
14
Step 29  E=-436.4624381230  phi=144.943  theta=78.459
C  -1.6538772147  1.3524992116  0.0774693089
C  -0.3025300147  1.2221445577  0.0276303063
C   0.1422641918 -0.0281547939 -0.1153965616
C  -2.4859138402  0.2432535913  0.0676046791
H  -1.9541417949  2.4388292323  0.2196431998
H   0.4098327800  2.1054323837 -0.0408266004
H  -3.4995728324  0.5166532640 -0.0249990373
N   1.7414937548  0.0670652640 -0.2171090220
O   2.0989147350 -1.1117915932 -0.2138577038
O   2.4037029055  1.1144102616 -0.0462788234
C  -1.7892261844 -1.1813187288  0.0965277022
H  -2.2818667180 -2.0946460867  0.3040580067
C  -0.4617364399 -1.1590940136 -0.1043421315
H  -0.1284297945 -2.2539264548 -0.2324129803
14
Step 30  E=-436.4633253716  phi=145.168  theta=78.562
C  -1.6501433862  1.3712791989  0.0782603654
C  -0.2998767277  1.2167621958  0.0325356918
C   0.1377486054 -0.0209359640 -0.1239756752
C  -2.4747139372  0.2408945446  0.0772565279
H  -1.9418792081  2.4450226835  0.2552000043
H   0.4151297205  2.0822628870 -0.0343292631
H  -3.4823633678  0.5520749735 -0.0378133262
N   1.7442117508  0.0642129148 -0.2176117293
O   2.1029299233 -1.1178322768 -0.2267494402
O   2.4103880984  1.1156420636 -0.0495521298
C  -1.7987718415 -1.1776985063  0.0931387559
H  -2.2508793007 -2.1248960401  0.3189186435
C  -0.4608224669 -1.1531340861 -0.1044245358
H  -0.1145807403 -2.2231109347 -0.2632324986
14
Step 31  E=-436.4642401913  phi=145.442  theta=78.667
C  -1.6468647844  1.3902309392  0.0793117782
C  -0.2970328741  1.2120893757  0.0372929298
C   0.1353916775 -0.0121666548 -0.1327118848
C  -2.4626532633  0.2379497901  0.0869132274
H  -1.9316155274  2.4455481944  0.2884456866
H   0.4171305944  2.0550626675 -0.0265988727
H  -3.4688765971  0.5835067105 -0.0490740862
N   1.7467632569  0.0609069650 -0.2177640293
O   2.1072711792 -1.1232686358 -0.2397055255
O   2.4166608888  1.1160852745 -0.0530397543
C  -1.8092226927 -1.1724965874  0.0897302625
H  -2.2227913220 -2.1548982152  0.3324841859
C  -0.4606288996 -1.1493389831 -0.1045477974
H  -0.0985766718 -2.1846656925 -0.2924805320
14
Step 32  E=-436.4633993666  phi=145.754  theta=78.779
C  -1.6439185765  1.4090160143  0.0806675537
C  -0.2941745355  1.2083242934  0.0419157441
C   0.1352196313 -0.0022104925 -0.1415929562
C  -2.4499474858  0.2346572832  0.0965143660
H  -1.9237719948  2.4417270215  0.3192198402
H   0.4169919078  2.0254956174 -0.0176598684
H  -3.4581056992  0.6099690276 -0.0584059506
N   1.7491906990  0.0571789225 -0.2176102900
O   2.1118999772 -1.1280468204 -0.2527087309
O   2.4224932898  1.1156912720 -0.0567370810
C  -1.8203702479 -1.1659626029  0.0863606814
H  -2.1975257077 -2.1822583636  0.3442107270
C  -0.4612506484 -1.1474177780 -0.1047417433
H  -0.0802351485 -2.1408378823 -0.3199924529
14
Step 33  E=-436.4597158206  phi=146.088  theta=78.901
C  -1.6411694561  1.4272697747  0.0823517218
C  -0.2915114605  1.2056277783  0.0464264945
C   0.1372055461  0.0084932526 -0.1506064017
C  -2.4368406376  0.2312680222  0.1059972075
H  -1.9188376260  2.4353209593  0.3475724623
H   0.4163040224  1.9957451767 -0.0075605487
H  -3.4488306855  0.6304536430 -0.0653821934
N   1.7515311347  0.0530682623 -0.2171967603
O   2.1167798487 -1.1321265349 -0.2657414161
O   2.4278617391  1.1144202194 -0.0606378348
C  -1.8319847379 -1.1583660665  0.0830859781
H  -2.1751624267 -2.2047144527  0.3535729815
C  -0.4627594875 -1.1469335817 -0.1050206686
H  -0.0591313564 -2.0947070641 -0.3458583731
14
Step 34  E=-436.4535556124  phi=146.429  theta=79.034
C  -1.6384801620  1.4446208131  0.0843679072
C  -0.2892693376  1.2041200590  0.0508531339
C   0.1412765859  0.0194668596 -0.1597374020
C  -2.4235771776  0.2280317743  0.1153008820
H  -1.9173303092  2.4283688145  0.3737616367
H   0.4169791210  1.9683527831  0.0036474659
H  -3.4399069213  0.6440591302 -0.0695715827
N   1.7538161027  0.0486212529 -0.2165712016
O   2.1218770284 -1.1354805666 -0.2787858239
O   2.4327473633  1.1122409956 -0.0647340496
C  -1.8438178694 -1.1499725255  0.0799531512
H  -2.1559778326 -2.2204081935  0.3601383707
C  -0.4652103450 -1.1473495722 -0.1053814751
H  -0.0346022441 -2.0499167454 -0.3704498364
14
Step 35  E=-436.4469131506  phi=146.762  theta=79.182
C  -1.6357238851  1.4607201043  0.0867036707
C  -0.2876586021  1.2038892685  0.0552242754
C   0.1473210191  0.0302365479 -0.1689664358
C  -2.4103833283  0.2251841339  0.1243700514
H  -1.9197278975  2.4229052034  0.3981959992
H   0.4209810709  1.9458845572  0.0159393110
H  -3.4304445464  0.6501006011 -0.0705822978
N   1.7560718600  0.0438895082 -0.2157825392
O   2.1271609972 -1.1380942346 -0.2918243897
O   2.4371362650  1.1091311307 -0.0690160654
C  -1.8556124485 -1.1410293390  0.0769968661
H  -2.1404149812 -2.2280142738  0.3636078798
C  -0.4686344004 -1.1481085842 -0.1058114216
H  -0.0059092103 -2.0100479187 -0.3943271650
14
Step 36  E=-436.4424383725  phi=147.073  theta=79.344
C  -1.6327986405  1.4752772854  0.0893406607
C  -0.2868295982  1.2050123745  0.0595632516
C   0.1551935126  0.0403727055 -0.1782666075
C  -2.3974564711  0.2229363563  0.1331572778
H  -1.9263672151  2.4205840265  0.4213112193
H   0.4298859888  1.9304413148  0.0293462650
H  -3.4198938675  0.6481790674 -0.0680929237
N   1.7583198278  0.0389283548 -0.2148805614
O   2.1326051314 -1.1399647664 -0.3048400153
O   2.4410197851  1.1050767888 -0.0734725389
C  -1.8671144701 -1.1317566814  0.0742387035
H  -2.1290284279 -2.2267753781  0.3638324852
C  -0.4730116912 -1.1487331375 -0.1063096949
H   0.0273734514 -1.9777292816 -0.4179743635
14
Step 37  E=-436.4416697693  phi=147.351  theta=79.523
C  -1.6296418976  1.4880950424  0.0922685910
C  -0.2868249811  1.2075779634  0.0638832038
C   0.1647182508  0.0495218385 -0.1876008162
C  -2.3849593709  0.2214677993  0.1416241796
H  -1.9373284299  2.4223083346  0.4434038949
H   0.4443926010  1.9231667198  0.0439636700
H  -3.4080760241  0.6382169254 -0.0618710110
N   1.7605770438  0.0337951539 -0.2139156780
O   2.1381872748 -1.1411007962 -0.3178163190
O   2.4443947394  1.1000728434 -0.0780904646
C  -1.8780839988 -1.1223395215  0.0716877528
H  -2.1224312221 -2.2165007415  0.3608157678
C  -0.4782332152 -1.1489051961 -0.1069151733
H   0.0648673095 -1.9539160488 -0.4414496119
14
Step 38  E=-436.4440525580  phi=147.589  theta=79.718
C  -1.6262416524  1.4990883356  0.0954975318
C  -0.2875505182  1.2116927456  0.0681851518
C   0.1756905955  0.0574270076 -0.1969192192
C  -2.3730162064  0.2209203585  0.1497418759
H  -1.9523448521  2.4280196294  0.4644874261
H   0.4640213218  1.9240018423  0.0599210980
H  -3.3951919633  0.6204711557 -0.0517833108
N   1.7628564627  0.0285477138 -0.2129387054
O   2.1438904203 -1.1415219940 -0.3307379091
O   2.4472635179  1.0941231292 -0.0828551944
C  -1.8883023680 -1.1129182764  0.0693412677
H  -2.1212567125 -2.1975698667  0.3547126803
C  -0.4840808188 -1.1484826971 -0.1077211451
H   0.1051233245 -1.9378264850 -0.4641899901
14
Step 39  E=-436.4476835211  phi=147.782  theta=79.930
C  -1.6226397784  1.5082795867  0.0990624979
C  -0.2887809305  1.2174622107  0.0724591175
C   0.1878785633  0.0639359519 -0.2061576489
C  -2.3617092155  0.2213945068  0.1574911513
H  -1.9707819422  2.4367519667  0.4842413434
H   0.4871921516  1.9318305860  0.0773239405
H  -3.3818241668  0.5955300654 -0.0378002054
N   1.7651669532  0.0232430941 -0.2120005815
O   2.1497021631 -1.1412591333 -0.3435906594
O   2.4496342604  1.0872407694 -0.0877504625
C  -1.8975747679 -1.1035775798  0.0671845783
H  -2.1261382718 -2.1709594687  0.3458307507
C  -0.4902465853 -1.1474521240 -0.1088640202
H   0.1458007934 -1.9275618854 -0.4851245821
14
Step 40  E=-436.4508068752  phi=147.930  theta=80.161
C  -1.6189260219  1.5157725411  0.1030183797
C  -0.2901975350  1.2249560012  0.0766865147
C   0.2010256778  0.0689977386 -0.2152376062
C  -2.3510767025  0.2229475246  0.1648622300
H  -1.9917014831  2.4469221367  0.5020775627
H   0.5116372152  1.9449134220  0.0961986230
H  -3.3689231739  0.5642896484 -0.0199928615
N   1.7675130837  0.0179361469 -0.2111520190
O   2.1556151462 -1.1403538833 -0.3563619583
O   2.4515211836  1.0794487127 -0.0927584232
C  -1.9057285150 -1.0943348247  0.0651902760
H  -2.1377055567 -2.1382845840  0.3346330393
C  -0.4963798323 -1.1458595079 -0.1104945076
H   0.1841847782 -1.9209294593 -0.5029912727
14
Step 41  E=-436.4527281444  phi=148.035  theta=80.410
C  -1.6152246212  1.5217170144  0.1074286391
C  -0.2914386818  1.2341789959  0.0808421731
C   0.2148560350  0.0726503773 -0.2240681065
C  -2.3411155432  0.2255952850  0.1718537121
H  -2.0139859255  2.4567165822  0.5172825376
H   0.5349122172  1.9613639011  0.1164669841
H  -3.3577488560  0.5278983048  0.0014823278
N   1.7698947691  0.0126780026 -0.2104430906
O   2.1616262090 -1.1388588190 -0.3690409846
O   2.4529446378  1.0707805991 -0.0978597371
C  -1.9126083780 -1.0851328401  0.0633176964
H  -2.1565916142 -2.1018089656  0.3217317849
C  -0.5021362977 -1.1437602439 -0.1127497982
H   0.2177021225 -1.9160275742 -0.5166428303
14
Step 42  E=-436.4539575853  phi=148.103  theta=80.676
C  -1.6116774034  1.5262771276  0.1123533265
C  -0.2921448821  1.2450611159  0.0848958450
C   0.2290818741  0.0750025130 -0.2325492709
C  -2.3317924135  0.2293186745  0.1784702284
H  -2.0364776148  2.4644318935  0.5291684953
H   0.5547996161  1.9794858688  0.1379514510
H  -3.3497215921  0.4876598053  0.0264177954
N   1.7723069516  0.0075142854 -0.2099227762
O   2.1677350613 -1.1368372470 -0.3816188607
O   2.4539310805  1.0612817931 -0.1030336529
C  -1.9180713489 -1.0758450610  0.0615147614
H  -2.1834352127 -2.0643333801  0.3078499570
C  -0.5072116548 -1.1411977747 -0.1157371934
H   0.2442371867 -1.9114881472 -0.5252211005
14
Step 43  E=-436.4558935960  phi=148.141  theta=80.959
C  -1.6084265989  1.5296093587  0.1178401965
C  -0.2919916315  1.2574649599  0.0888138346
C   0.2434129691  0.0762128732 -0.2405770601
C  -2.3230666742  0.2340740308  0.1847190128
H  -2.0580975134  2.4686994557  0.5371876114
H   0.5695313759  1.9979363645  0.1603985387
H  -3.3461490925  0.4449029988  0.0546047817
N   1.7747394634  0.0024826348 -0.2096385793
O   2.1739443538 -1.1343621220 -0.3940887702