14
Step 0  E=-436.5267762980  phi=140.285  theta=119.815
C  -1.9017912056  1.1727122567 -0.0477432029
C  -0.4769855851  1.2089837343 -0.0525913551
C   0.1989930303  0.0320512563 -0.0408543372
C  -2.6171430159 -0.0300224376 -0.0148430556
H  -2.4416004243  2.1136320306 -0.0591206214
H   0.0614279961  2.1484988819 -0.0520092367
H  -3.6986697869 -0.0204265131 -0.0040750833
N   1.6711315760  0.0356225704  0.0208464684
O   2.2179236920 -1.0816193697  0.1287141518
O   2.2435556456  1.1378281462 -0.0390752686
C  -1.9265076461 -1.2274997547  0.0051174872
H  -2.4537747291 -2.1750428848  0.0390152332
C  -0.4586672011 -1.2762936829 -0.0365916378
H   0.0224644066 -2.0240500083  0.5965118023
14
Step 1  E=-436.5284323753  phi=140.254  theta=119.820
C  -1.9013976245  1.1725676319 -0.0476545222
C  -0.4778247247  1.2092574394 -0.0527077304
C   0.1985805414  0.0305391410 -0.0409757793
C  -2.6167253974 -0.0296654622 -0.0149825021
H  -2.4406014749  2.1126758981 -0.0589121160
H   0.0610107288  2.1481005580 -0.0522094717
H  -3.6978497798 -0.0205912951 -0.0038396550
N   1.6718558928  0.0354904453  0.0209666528
O   2.2175204212 -1.0805829521  0.1285516783
O   2.2432710361  1.1369483844 -0.0390040085
C  -1.9251534336 -1.2277912950  0.0049494393
H  -2.4538111513 -2.1745727966  0.0400881213
C  -0.4596581872 -1.2747595149 -0.0355627752
H   0.0228595931 -2.0262254433  0.5881634569
14
Step 2  E=-436.5310552452  phi=140.203  theta=119.829
C  -1.9007462853  1.1723261719 -0.0475080085
C  -0.4791993602  1.2096839499 -0.0529006718
C   0.1978914414  0.0280672346 -0.0411763208
C  -2.6160186797 -0.0290908739 -0.0152124009
H  -2.4390177207  2.1112056298 -0.0585643927
H   0.0603372442  2.1474824287 -0.0525425971
H  -3.6965389450 -0.0208618512 -0.0034527673
N   1.6730334703  0.0352706328  0.0211643602
O   2.2168608152 -1.0788758500  0.1282833656
O   2.2428038954  1.1354968453 -0.0388859447
C  -1.9229299472 -1.2282577983  0.0046725247
H  -2.4538294908 -2.1738014394  0.0418571745
C  -0.4612989289 -1.2722157055 -0.0338691961
H   0.0236209329 -2.0299783050  0.5744470480
14
Step 3  E=-436.5344584864  phi=140.135  theta=119.841
C  -1.8998447963  1.1719882196 -0.0473055754
C  -0.4810741782  1.2102210882 -0.0531686302
C   0.1969241879  0.0247065807 -0.0414531009
C  -2.6150082100 -0.0283282134 -0.0155289817
H  -2.4369617064  2.1093906050 -0.0580771150
H   0.0594368718  2.1467055678 -0.0530076928
H  -3.6948124038 -0.0212324513 -0.0029225396
N   1.6746204491  0.0349639915  0.0214356629
O   2.2159635440 -1.0765285037  0.1279129093
O   2.2421649238  1.1334955736 -0.0387221275
C  -1.9198871781 -1.2288711315  0.0042915564
H  -2.4537679570 -2.1727465767  0.0442933168
C  -0.4635713306 -1.2686847571 -0.0315402674
H   0.0248816216 -2.0354684839  0.5556287800
14
Step 4  E=-436.5384125662  phi=140.052  theta=119.856
C  -1.8987050524  1.1715560855 -0.0470498643
C  -0.4834008695  1.2108141911 -0.0535093965
C   0.1956782846  0.0205539830 -0.0418019936
C  -2.6136760843 -0.0274168848 -0.0159269653
H  -2.4345734061  2.1074382317 -0.0574498028
H   0.0583439578  2.1458414697 -0.0536034313
H  -3.6927591971 -0.0216957876 -0.0022601239
N   1.6765565752  0.0345722332  0.0217750152
O   2.2148545279 -1.0735835906  0.1274454430
O   2.2413688688  1.1309753131 -0.0385140184
C  -1.9160944762 -1.2295937510  0.0038133872
H  -2.4535436416 -2.1714324073  0.0473550625
C  -0.4664466003 -1.2642037695 -0.0286125499
H   0.0267864094 -2.0428576257  0.5320250700
14
Step 5  E=-436.5426616499  phi=139.956  theta=119.874
C  -1.8973442693  1.1710355993 -0.0467442006
C  -0.4861191961  1.2113999421 -0.0539200738
C   0.1941557126  0.0157295780 -0.0422175219
C  -2.6120034278 -0.0264043699 -0.0163995764
H  -2.4320046274  2.1055676270 -0.0566818732
H   0.0570922954  2.1449604361 -0.0543280418
H  -3.6904687719 -0.0222435548 -0.0014795373
N   1.6787663848  0.0340983847  0.0221752215
O   2.2135666691 -1.0700960007  0.1268874905
O   2.2404342763  1.1279753449 -0.0382634783
C  -1.9116398656 -1.2303803765  0.0032469869
H  -2.4530562893 -2.1698892432  0.0509879519
C  -0.4698819994 -1.2588297857 -0.0251260735
H   0.0294517889 -2.0522482105  0.5039571238
14
Step 6  E=-436.5469333448  phi=139.851  theta=119.895
C  -1.8957859995  1.1704376807 -0.0463925281
C  -0.4891583067  1.2119105909 -0.0543970611
C   0.1923624685  0.0103739610 -0.0426927878
C  -2.6099728893 -0.0253441407 -0.0169385771
H  -2.4294020170  2.1039810160 -0.0557727569
H   0.0557095472  2.1441198282 -0.0551792683
H  -3.6880171574 -0.0228670483 -0.0005974978
N   1.6811607724  0.0335473102  0.0226274210
O   2.2121394375 -1.0661326799  0.1262468956
O   2.2393831485  1.1245432242 -0.0379727487
C  -1.9066290659 -1.2311799388  0.0026034965
H  -2.4521933303 -2.1681534926  0.0551241281
C  -0.4738172731 -1.2526457449 -0.0211209730
H   0.0329217285 -2.0636131586  0.4717108032
14
Step 7  E=-436.5509455469  phi=139.740  theta=119.919
C  -1.8940609020  1.1697796103 -0.0459993187
C  -0.4924383125  1.2122781654 -0.0549360588
C   0.1903100435  0.0046449296 -0.0432194352
C  -2.6075710770 -0.0242933813 -0.0175343339
H  -2.4268909877  2.1028368503 -0.0547221303
H   0.0542126514  2.1433540664 -0.0561543224
H  -3.6854549893 -0.0235577327  0.0003667256
N   1.6836389693  0.0329262302  0.0231211044
O   2.2106182593 -1.0617722506  0.1255327192
O   2.2382404989  1.1207343746 -0.0376444267
C  -1.9011841057 -1.2319377057  0.0018962324
H  -2.4508361768 -2.1662680552  0.0596822458
C  -0.4781716197 -1.2457657180 -0.0166356238
H   0.0371282072 -2.0767302970  0.4355147178
14
Step 8  E=-436.5544198313  phi=139.628  theta=119.944
C  -1.8922070237  1.1690856672 -0.0455694508
C  -0.4958721522  1.2124383282 -0.0555321076
C   0.1880166634 -0.0012861660 -0.0437876545
C  -2.6047906820 -0.0233106174 -0.0181759289
H  -2.4245630457  2.1022289270 -0.0535302887
H   0.0526051382  2.1426680193 -0.0572498333
H  -3.6827993991 -0.0243077623  0.0013914601
N   1.6860909469  0.0322451679  0.0236441814
O   2.2090536573 -1.0571043030  0.1247550974
O   2.2370337975  1.1166114977 -0.0372814290
C  -1.8954413658 -1.2325974970  0.0011406180
H  -2.4488676646 -2.1642831238  0.0645678864
C  -0.4828423275 -1.2383377249 -0.0117071610
H   0.0418665166 -2.0911409918  0.3955458051
14
Step 9  E=-436.5571077581  phi=139.517  theta=119.971
C  -1.8902693872  1.1683868647 -0.0451080589
C  -0.4993677821  1.2123336147 -0.0561796687
C   0.1855081344 -0.0072385304 -0.0443862287
C  -2.6016320823 -0.0224533359 -0.0188513225
H  -2.4224686125  2.1021751323 -0.0521986636
H   0.0508770422  2.1420349618 -0.0584617944
H  -3.6800312548 -0.0251104641  0.0024528083
N   1.6884002508  0.0315172271  0.0241831139
O   2.2075000992 -1.0522282415  0.1239250462
O   2.2357923017  1.1122437550 -0.0368869465
C  -1.8895488657 -1.2331039149  0.0003540254
H  -2.4461803705 -2.1622572503  0.0696746080
C  -0.4877060547 -1.2305425115 -0.0063743498
H   0.0467935330 -2.1061480450  0.3519663330
14
Step 10  E=-436.5588302813  phi=139.413  theta=119.999
C  -1.8882987685  1.1677196430 -0.0446203552
C  -0.5028307061  1.2119159097 -0.0568727436
C   0.1828181653 -0.0130265650 -0.0450026114
C  -2.5981042992 -0.0217756535 -0.0195475693
H  -2.4206165054  2.1026178177 -0.0507304476
H   0.0490076782  2.1413994978 -0.0597855064
H  -3.6770983819 -0.0259608137  0.0035249035
N   1.6904472514  0.0307585983  0.0247231297
O   2.2060145397 -1.0472515670  0.1230542054
O   2.2345462787  1.1077056882 -0.0364643888
C  -1.8836626398 -1.2334045450 -0.0004444645
H  -2.4426853529 -2.1602583748  0.0748856443
C  -0.4926230376 -1.2225874479 -0.0006818758
H   0.0514550274 -2.1208587558  0.3049849642
14
Step 11  E=-436.5595200835  phi=139.318  theta=120.029
C  -1.8863496671  1.1671235749 -0.0441114374
C  -0.5061668344  1.2111481455 -0.0576050150
C   0.1799880934 -0.0184650774 -0.0456230082
C  -2.5942252880 -0.0213260840 -0.0202510696
H  -2.4189799600  2.1034355976 -0.0491312687
H   0.0469710234  2.1406849898 -0.0612155206
H  -3.6739243606 -0.0268559194  0.0045802755
N   1.6921127684  0.0299881850  0.0252485174
O   2.2046546527 -1.0422875032  0.1221545200
O   2.2333261325  1.1030758562 -0.0360173180
C  -1.8779421450 -1.2334520653 -0.0012343568
H  -2.4383206701 -2.1583643876  0.0800760946
C  -0.4974437453 -1.2146961986  0.0053150790
H   0.0553389547 -2.1342698304  0.2549154263
14
Step 12  E=-436.5592398219  phi=139.236  theta=120.058
C  -1.8844776163  1.1666383501 -0.0435861040
C  -0.5092856029  1.2100053126 -0.0583699758
C   0.1770659659 -0.0233750027 -0.0462324707
C  -2.5900216627 -0.0211454451 -0.0209478325
H  -2.4175078640  2.1044642483 -0.0474098310
H   0.0447429944  2.1398043240 -0.0627456163
H  -3.6704216254 -0.0277954890  0.0055903510
N   1.6932819915  0.0292268014  0.0257430032
O   2.2034767683 -1.0374519476  0.1212378722
O   2.2321614553  1.0984351768 -0.0355493733
C  -1.8725447580 -1.2332061855 -0.0019940749
H  -2.4330589280 -2.1566627302  0.0851154290
C  -0.5020170052 -1.2070959217  0.0115474808
H   0.0579390437 -2.1453744265  0.2022126298
14
Step 13  E=-436.5581680370  phi=139.170  theta=120.087
C  -1.8827360894  1.1663004379 -0.0430487118
C  -0.5121032310  1.2084749444 -0.0591610105
C   0.1741049646 -0.0275895162 -0.0468150751
C  -2.5855280382 -0.0212649452 -0.0216237273
H  -2.4161390321  2.1055229187 -0.0455784033
H   0.0423095693  2.1386723517 -0.0643688485
H  -3.6665069314 -0.0287822259  0.0065260950
N   1.6938485980  0.0284959120  0.0261902149
O   2.2025335679 -1.0328597787  0.1203156714
O   2.2310800292  1.0938649958 -0.0350641895
C  -1.8676195206 -1.2326353812 -0.0027013575
H  -2.4269130607 -2.1552485193  0.0898702588
C  -0.5061984954 -1.2000037110  0.0179318436
H   0.0588151639 -2.1532672624  0.1474901753
14
Step 14  E=-436.5565660936  phi=139.122  theta=120.115
C  -1.8811733003  1.1661398380 -0.0425031065
C  -0.5145459569  1.2065572601 -0.0599713921
C   0.1711612978 -0.0309603656 -0.0473542412
C  -2.5807861573 -0.0217044848 -0.0222646875
H  -2.4148170677  2.1064413668 -0.0436530564
H   0.0396745681  2.1372181992 -0.0660776829
H  -3.6621169588 -0.0298220691  0.0073587629
N   1.6937189509  0.0278159610  0.0265742231
O   2.2018716330 -1.0286206360  0.1193984282
O   2.2301068013  1.0894449295 -0.0345653118
C  -1.8633004416 -1.2317184370 -0.0033337262
H  -2.4199395550 -2.1542207391  0.0942071799
C  -0.5098586780 -1.1936138834  0.0243721682
H   0.0576441693 -2.1572376815  0.0915095713
14
Step 15  E=-436.5547252121  phi=139.095  theta=120.142
C  -1.8798291958  1.1661772826 -0.0419526265
C  -0.5165530630  1.2042651325 -0.0607942093
C   0.1682917775 -0.0333641096 -0.0478331250
C  -2.5758439601 -0.0224712130 -0.0228568555
H  -2.4135035740  2.1070843023 -0.0416536012
H   0.0368659009  2.1353957881 -0.0678641805
H  -3.6572219534 -0.0309241651  0.0080607172
N   1.6928162058  0.0272044514  0.0268801111
O   2.2015289869 -1.0248344136  0.1184953456
O   2.2292628685  1.0852505565 -0.0340561104
C  -1.8596998467 -1.2304458308 -0.0038689568
H  -2.4122385515 -2.1536762322  0.0979953323
C  -0.5128893917 -1.1880873719  0.0307633875
H   0.0542561644 -2.1568392855  0.0351343446
14
Step 16  E=-436.5529010058  phi=139.090  theta=120.166
C  -1.8787329230  1.1664221854 -0.0414001453
C  -0.5180794907  1.2016240300 -0.0616223044
C   0.1655513337 -0.0347078483 -0.0482348918
C  -2.5707547519 -0.0235583835 -0.0233867165
H  -2.4121879944  2.1073698263 -0.0396032177
H   0.0339393439  2.1331912921 -0.0697201754
H  -3.6518357235 -0.0321005010  0.0086062608
N   1.6910841389  0.0266740179  0.0270945180
O   2.2015328080 -1.0215868153  0.1176139472
O   2.2285645046  1.0813510557 -0.0335396957
C  -1.8569023476 -1.2288209923 -0.0042854130
H  -2.4039505668 -2.1537015043  0.1011083672
C  -0.5152087561 -1.1835436949  0.0369960590
H   0.0486553852 -2.1519291806 -0.0207237964
14
Step 17  E=-436.5512657543  phi=139.107  theta=120.188
C  -1.8779010138  1.1668715390 -0.0408481093
C  -0.5190978547  1.1986720502 -0.0624482818
C   0.1629907390 -0.0349340560 -0.0485426937
C  -2.5655765911 -0.0249445558 -0.0238412531
H  -2.4108929248  2.1072799659 -0.0375278368
H   0.0309792328  2.1306265921 -0.0716374143
H  -3.6460207430 -0.0333651816  0.0089723902
N   1.6884905064  0.0262307863  0.0272060892
O   2.2018974777 -1.0189453727  0.1167597497
O   2.2280222674  1.0778069198 -0.0330188339
C  -1.8549599747 -1.2268614471 -0.0045621295
H  -2.3952500691 -2.1543628251  0.1034255948
C  -0.5167645898 -1.1800555920  0.0429613725
H   0.0410268349 -2.1426865197 -0.0751562713
14
Step 18  E=-436.5498863530  phi=139.146  theta=120.207
C  -1.8773364704  1.1675098724 -0.0402985548
C  -0.5195996903  1.1954601061 -0.0632645812
C   0.1606547957 -0.0340241629 -0.0487393901
C  -2.5603719375 -0.0265932096 -0.0242081015
H  -2.4096743148  2.1068623115 -0.0354553740
H   0.0280958496  2.1277583348 -0.0736076537
H  -3.6398877283 -0.0347333469  0.0091393475
N   1.6850297214  0.0258733291  0.0272058059
O   2.2026231278 -1.0169563408  0.1159360037
O   2.2276402317  1.0746678821 -0.0324958705
C  -1.8538889314 -1.2245998207 -0.0046786992
H  -2.3863367595 -2.1556956405  0.1048325316
C  -0.5175362803 -1.1776464177  0.0485553304
H   0.0317299633 -2.1296121528 -0.1273172851
14
Step 19  E=-436.5487235534  phi=139.206  theta=120.221
C  -1.8770288647  1.1683103010 -0.0397531165
C  -0.5195958230  1.1920522304 -0.0640635919
C   0.1585811619 -0.0320005913 -0.0488072517
C  -2.5552075078 -0.0284528577 -0.0244756930
H  -2.4086164384  2.1062225325 -0.0334148869
H   0.0254196075  2.1246726802 -0.0756227176
H  -3.6335895954 -0.0362197673  0.0090909112
N   1.6807246322  0.0255924420  0.0270872054
O   2.2036948861 -1.0156428034  0.1151435444
O   2.2274154007  1.0719712064 -0.0319726736
C  -1.8536682859 -1.2220846138 -0.0046151773
H  -2.3774257159 -2.1576947041  0.1052215777
C  -0.5175347163 -1.1762904360  0.0536824570
H   0.0212819230 -2.1135031926 -0.1764798913
14
Step 20  E=-436.5476605773  phi=139.286  theta=120.231
C  -1.8769554785  1.1692366230 -0.0392130363
C  -0.5191158187  1.1885258544 -0.0648377889
C   0.1567999222 -0.0289270587 -0.0487278706
C  -2.5501542150 -0.0304577638 -0.0246333773
H  -2.4078220315  2.1055084090 -0.0314357292
H   0.0230925670  2.1214764139 -0.0776745275
H  -3.6273103624 -0.0378371856  0.0088144309
N   1.6756272277  0.0253718265  0.0268465136
O   2.2050829336 -1.0150042039  0.1143807726
O   2.2273373498  1.0697404851 -0.0314506078
C  -1.8542407323 -1.2193805514 -0.0043521885
H  -2.3687375429 -2.1603066563  0.1044934482
C  -0.5168002839 -1.1759162643  0.0582594534
H   0.0103297508 -2.0954051046 -0.2220729615
14
Step 21  E=-436.5465571688  phi=139.383  theta=120.236
C  -1.8770833968  1.1702463212 -0.0386791740
C  -0.5182065411  1.1849718392 -0.0655798720
C   0.1553338695 -0.0249070402 -0.0484823664
C  -2.5452870134 -0.0325293857 -0.0246715175
H  -2.4073985641  2.1048869875 -0.0295468116
H   0.0212581419  2.1182856156 -0.0797551141
H  -3.6212502032 -0.0395945025  0.0083006486
N   1.6698181320  0.0251896238  0.0264826901
O   2.2067433817 -1.0150173717  0.1136437685
O   2.2273881524  1.0679850569 -0.0309305447
C  -1.8555153790 -1.2165681994 -0.0038713102
H  -2.3604895965 -2.1634268900  0.1025595685
C  -0.5153989914 -1.1764137407  0.0622178573
H  -0.0003923766 -2.0765400599 -0.2637045388
14
Step 22  E=-436.5453039933  phi=139.494  theta=120.235
C  -1.8773723564  1.1712942155 -0.0381520161
C  -0.5169298951  1.1814939702 -0.0662829015
C   0.1541993077 -0.0200803562 -0.0480518862
C  -2.5406844259 -0.0345786648 -0.0245815590
H  -2.4074422524  2.1045175875 -0.0277760542
H   0.0200500922  2.1152134909 -0.0818566196
H  -3.6156083626 -0.0414949334  0.0075433871
N   1.6634048143  0.0250205942  0.0259973867
O   2.2086199071 -1.0156389351  0.1129265212
O   2.2275426413  1.0667001083 -0.0304129110
C  -1.8573723689 -1.2137425134 -0.0031557352
H  -2.3528890663 -2.1669021041  0.0993454568
C  -0.5134166419 -1.1776442550  0.0655048064
H  -0.0101221467 -2.0582052508 -0.3011675988
14
Step 23  E=-436.5438590014  phi=139.614  theta=120.228
C  -1.8777780457  1.1723363847 -0.0376316771
C  -0.5153598768  1.1782075929 -0.0669404272
C   0.1534071026 -0.0146179863 -0.0474183587
C  -2.5364275175 -0.0365092543 -0.0243560825
H  -2.4080220409  2.1045244950 -0.0261500640
H   0.0195820803  2.1123592196 -0.0839712936
H  -3.6105660384 -0.0435342816  0.0065392237
N   1.6565185622  0.0248386027  0.0253948344
O   2.2106460431 -1.0168088018  0.1122212534
O   2.2277690336  1.0658674670 -0.0298977691
C  -1.8596689981 -1.2110100464 -0.0021911738
H  -2.3461281765 -2.1705390995  0.0947949648
C  -0.5109513110 -1.1794539805  0.0680817731
H  -0.0181395022 -2.0416477238 -0.3344111692
14
Step 24  E=-436.5422575276  phi=139.739  theta=120.214
C  -1.8782554806  1.1733338961 -0.0371178987
C  -0.5135790590  1.1752370780 -0.0675465954
C   0.1529636305 -0.0087152986 -0.0465654086
C  -2.5325981219 -0.0382217106 -0.0239888362
H  -2.4091661683  2.1049738809 -0.0246940246
H   0.0199390219  2.1097995893 -0.0860914913
H  -3.6062714688 -0.0456994739  0.0052872632
N   1.6493103816  0.0246190171  0.0246816721
O   2.2127479783 -1.0184542835  0.1115188159
O   2.2280299181  1.0654570354 -0.0293849242
C  -1.8622469173 -1.2084846804 -0.0009669016
H  -2.3403812713 -2.1741193697  0.0888749164
C  -0.5081050073 -1.1816883959  0.0699212675
H  -0.0238384917 -2.0279342060 -0.3634779889
14
Step 25  E=-436.5405962022  phi=139.863  theta=120.194
C  -1.8787620675  1.1742558707 -0.0366100555
C  -0.5116746418  1.1727119083 -0.0680962074
C   0.1528712859 -0.0025839379 -0.0454793002
C  -2.5292762300 -0.0396185721 -0.0234747347
H  -2.4108538089  2.1058592802 -0.0234317386
H   0.0211711588  2.1075847704 -0.0882096844
H  -3.6028291798 -0.0479674696  0.0037890935
N   1.6419460629  0.0243407033  0.0238667175
O   2.2148476167 -1.0204944527  0.1108091125
O   2.2282835656  1.0654287429 -0.0288740430
C  -1.8649399641 -1.2062819467  0.0005231937
H  -2.3358031536 -2.1774178984  0.0815794230
C  -0.5049758345 -1.1842057438  0.0710020201
H  -0.0267889060 -2.0178383522 -0.3884273072
14
Step 26  E=-436.5390030737  phi=139.980  theta=120.166
C  -1.8792600403  1.1750815186 -0.0361071760
C  -0.5097342095  1.1707613579 -0.0685847154
C   0.1531283219  0.0035572993 -0.0441497878
C  -2.5265365974 -0.0406100887 -0.0228098159
H  -2.4130135646  2.1070987004 -0.0223857268
H   0.0232913399  2.1057389054 -0.0903184987
H  -3.6002947372 -0.0503046432  0.0020489725
N   1.6346007072  0.0239874085  0.0229606822
O   2.2168656585 -1.0228443637  0.1100815230
O   2.2284854790  1.0657348538 -0.0283647721
C  -1.8675821595 -1.2045122548  0.0022797038
H  -2.3325279157 -2.1802238412  0.0729331501
C  -0.5016519821 -1.1868870356  0.0713042130
H  -0.0267752532 -2.0117696339 -0.4092637498
14
Step 27  E=-436.5376147059  phi=140.085  theta=120.131
C  -1.8797180823  1.1758009584 -0.0356079870
C  -0.5078413517  1.1695079760 -0.0690081458
C   0.1537279646  0.0094921920 -0.0425707789
C  -2.5244447941 -0.0411202169 -0.0219911495
H  -2.4155293241  2.1085442134 -0.0215772925
H   0.0262754619  2.1042652189 -0.0924107821
H  -3.5986753975 -0.0526667190  0.0000742394
N   1.6274530172  0.0235484402  0.0219758395
O   2.2187245082 -1.0254188399  0.1093252957
O   2.2285900841  1.0663224486 -0.0278568415
C  -1.8700154180 -1.2032735987  0.0042970450
H  -2.3306675001 -2.1823602654  0.0629929315
C  -0.4982084046 -1.1896410377  0.0708066153
H  -0.0238039068 -2.0097605739 -0.4258919315
14
Step 28  E=-436.5365678612  phi=140.173  theta=120.089
C  -1.8801120955  1.1764148466 -0.0351109811
C  -0.5060713320  1.1690603151 -0.0693629478
C   0.1546569347  0.0150169215 -0.0407407643
C  -2.5230530636 -0.0410923451 -0.0210167033
H  -2.4182526257  2.1100024458 -0.0210264935
H   0.0300656543  2.1031545288 -0.0944797000
H  -3.5979361085 -0.0549993201 -0.0021241073
N   1.6206796424  0.0230186854  0.0209256545
O   2.2203508669 -1.0281356448  0.1085298938
O   2.2285524610  1.0671358958 -0.0273501466
C  -1.8720965648 -1.2026445013  0.0065631231
H  -2.3303094670 -2.1837002427  0.0518474029
C  -0.4947062516 -1.1924041218  0.0694866688
H  -0.0180782206 -2.0115116304 -0.4381098305
14
Step 29  E=-436.5359971214  phi=140.238  theta=120.040
C  -1.8804252164  1.1769330301 -0.0346145003
C  -0.5044870346  1.1695055502 -0.0696457777
C   0.1558936666  0.0199494073 -0.0386630173
C  -2.5223964529 -0.0404941337 -0.0198851801
H  -2.4210194949  2.1112623733 -0.0207520093
H   0.0345754827  2.1023953996 -0.0965188356
H  -3.5980094940 -0.0572391658 -0.0045307684
N   1.6144498033  0.0223980906  0.0198243950
O   2.2216779180 -1.0309179593  0.1076852815
O   2.2283300213  1.0681191640 -0.0268448019
C  -1.8737033093 -1.2026780399  0.0090593291
H  -2.3315136731 -2.1841769713  0.0396146773
C  -0.4911943760 -1.1951362578  0.0673233146
H  -0.0099507337 -2.0164764667 -0.4456396598
14
Step 30  E=-436.5360257131  phi=140.276  theta=119.985
C  -1.8806472675  1.1773725458 -0.0341168251
C  -0.5031354820  1.1709027782 -0.0698532452
C   0.1574066459  0.0241375063 -0.0363455996
C  -2.5224896909 -0.0393208605 -0.0185958517
H  -2.4236691252  2.1121258005 -0.0207709310
H   0.0396962606  2.1019839728 -0.0985222689
H  -3.5988079433 -0.0593159258 -0.0071255516
N   1.6089203566  0.0216907820  0.0186867452
O   2.2226470665 -1.0336961858  0.1067821487
O   2.2278840414  1.0692178654 -0.0263411672
C  -1.8747389044 -1.2033977387  0.0117608288
H  -2.3343077830 -2.1837863112  0.0264384522
C  -0.4877119003 -1.1978150743  0.0643014085
H   0.0001342485 -2.0239634058 -0.4481822122
14
Step 31  E=-436.5367445801  phi=140.285  theta=119.925
C  -1.8807738694  1.1777553199 -0.0336162563
C  -0.5020452487  1.1732778108 -0.0699816574
C   0.1591533224  0.0274654343 -0.0338012248
C  -2.5233252098 -0.0375967893 -0.0171484187
H  -2.4260617653  2.1124359785 -0.0210985206
H   0.0453035648  2.1019316458 -0.1004846013
H  -3.6002358432 -0.0611546979 -0.0098829266
N   1.6042313861  0.0209040085  0.0175274437
O   2.2232092430 -1.0364091647  0.1058120783
O   2.2271809935  1.0703809694 -0.0258398492
C  -1.8751353216 -1.2047959079  0.0146370738
H  -2.3386817271 -2.1825811124  0.0124832382
C  -0.4842909165 -1.2004297155  0.0604163113
H   0.0116959237 -2.0332319047 -0.4454766179
14
Step 32  E=-436.5381864408  phi=140.263  theta=119.861
C  -1.8808054161  1.1781058693 -0.0331111795
C  -0.5012250691  1.1766201499 -0.0700268003
C   0.1610800260  0.0298578854 -0.0310470292
C  -2.5248725466 -0.0353743274 -0.0155429254
H  -2.4280936302  2.1121006801 -0.0217479808
H   0.0512632223  2.1022692549 -0.1024008949
H  -3.6022002413 -0.0626790183 -0.0127717906
N   1.6005023611  0.0200470793  0.0163609641
O   2.2233258203 -1.0390049223  0.1047676639
O   2.2261936405  1.0715621674 -0.0253416829
C  -1.8748549031 -1.2068346755  0.0176524503
H  -2.3445813895 -2.1806579111 -0.0020704294
C  -0.4809587385 -1.2029755673  0.0556775821
H   0.0242629168 -2.0435713377 -0.4373513943
14
Step 33  E=-436.5403062614  phi=140.209  theta=119.793
C  -1.8807460738  1.1784492328 -0.0326001075
C  -0.5006638361  1.1808825584 -0.0699837959
C   0.1631231494  0.0312815474 -0.0281042855
C  -2.5270791753 -0.0327310403 -0.0137797488
H  -2.4297072320  2.1111071271 -0.0227302639
H   0.0574362350  2.1030470161 -0.1042665021
H  -3.6046186311 -0.0638142533 -0.0157554695
N   1.5978288703  0.0191304157  0.0152012526
O   2.2229692179 -1.0414410696  0.1036425886
O   2.2249018910  1.0727209067 -0.0248476991
C  -1.8738905676 -1.2094495327  0.0207669904
H  -2.3519020705 -2.1781379435 -0.0170299283
C  -0.4777394764 -1.2054502568  0.0501112446
H   0.0374072757 -2.0543576371 -0.4237594450
14
Step 34  E=-436.5429764949  phi=140.124  theta=119.723
C  -1.8806029230  1.1788093025 -0.0320816972
C  -0.5003320150  1.1859832852 -0.0698470590
C   0.1652116310  0.0317440212 -0.0249980816
C  -2.5298726358 -0.0297648860 -0.0118596722
H  -2.4308961792  2.1095273366 -0.0240539220
H   0.0636823796  2.1043302607 -0.1060767807
H  -3.6074231605 -0.0644911687 -0.0187919391
N   1.5962799364  0.0181648053  0.0140615290
O   2.2221232545 -1.0436849705  0.1024316722
O   2.2232934248  1.0738231324 -0.0243590832
C  -1.8722647290 -1.2125548108  0.0239370911
H  -2.3604826676 -2.1751457926 -0.0321930249
C  -0.4746549357 -1.2078509267  0.0437605489
H   0.0507669092 -2.0650885287 -0.4047953216
14
Step 35  E=-436.5459996951  phi=140.011  theta=119.651
C  -1.8803853198  1.1792076707 -0.0315547457
C  -0.5001843248  1.1918106382 -0.0696103691
C   0.1672705274  0.0312904598 -0.0217569752
C  -2.5331637050 -0.0265882347 -0.0097840388
H  -2.4317039525  2.1075132749 -0.0257249762
H   0.0698623940  2.1061916319 -0.1078267053
H  -3.6105610587 -0.0646494373 -0.0218342318
N   1.5958959310  0.0171608998  0.0129541568
O   2.2207832916 -1.0457137846  0.1011309020
O   2.2213641032  1.0748417874 -0.0238771300
C  -1.8700271167 -1.2160502187  0.0271162182
H  -2.3701020068 -2.1717898771 -0.0473488309
C  -0.4717249306 -1.2101726684  0.0366853896
H   0.0640576292 -2.0753998417 -0.3806960382
14
Step 36  E=-436.5491348299  phi=139.873  theta=119.579
C  -1.8801045095  1.1796630650 -0.0310181706
C  -0.5001633876  1.1982292993 -0.0692670477
C   0.1692252602  0.0299984693 -0.0184126308
C  -2.5368502793 -0.0233213321 -0.0075549694
H  -2.4322166655  2.1052820740 -0.0277467570
H   0.0758389738  2.1087009764 -0.1095104059
H  -3.6139916221 -0.0642408456 -0.0248309787
N   1.5966871310  0.0161289551  0.0118905791
O   2.2189562371 -1.0475144383  0.0997374554
O   2.2191181804  1.0757571236 -0.0234032018
C  -1.8672516734 -1.2198274680  0.0302556042
H  -2.3804791105 -2.1681489329 -0.0622778922
C  -0.4689670485 -1.2124080799  0.0289606090
H   0.0770750134 -2.0850648843 -0.3518279188
14
Step 37  E=-436.5521300508  phi=139.713  theta=119.508
C  -1.8797734864  1.1801913855 -0.0304709836
C  -0.5002039524  1.2050876181 -0.0688102192
C   0.1710060120  0.0279719358 -0.0149994397
C  -2.5408216243 -0.0200858436 -0.0051756147
H  -2.4325503557  2.1030924479 -0.0301196458
H   0.0814771464  2.1119145140 -0.1111206818
H  -3.6176805261 -0.0632319896 -0.0277270440
N   1.5986329833  0.0150788127  0.0108813105
O   2.2166603808 -1.0490835896  0.0982497014
O   2.2165683421  1.0765568559 -0.0229386898
C  -1.8640326921 -1.2237761187  0.0333049828
H  -2.3912791195 -2.1642675095 -0.0767525579
C  -0.4663959494 -1.2145480122  0.0206734219
H   0.0896848790 -2.0939779097 -0.3186633358
14
Step 38  E=-436.5547536781  phi=139.538  theta=119.438
C  -1.8794070402  1.1808062748 -0.0299122713
C  -0.5002373115  1.2122251137 -0.0682331210
C   0.1725517244  0.0253344301 -0.0115541258
C  -2.5449626625 -0.0169990115 -0.0026504077
H  -2.4328340017  2.1012145126 -0.0328406340
H   0.0866446814  2.1158649169 -0.1126485388
H  -3.6215925249 -0.0616063207 -0.0304642091
N   1.6016821627  0.0140200828  0.0099359732
O   2.2139251040 -1.0504275824  0.0966671958
O   2.2137355916  1.0772361832 -0.0224849837
C  -1.8604803392 -1.2277880599  0.0362134114
H  -2.4021257927 -2.1601613806 -0.0905387240
C  -0.4640221466 -1.2165835133  0.0119202626
H   0.1018030268 -2.1021218065 -0.2817523414
14
Step 39  E=-436.5568176326  phi=139.352  theta=119.371
C  -1.8790218795  1.1815200505 -0.0293411931
C  -0.5001955895  1.2194795226 -0.0675294250
C   0.1738132702  0.0222227024 -0.0081153345
C  -2.5491580216 -0.0141687799  0.0000147164
H  -2.4331902901  2.0998964956 -0.0359026311
H   0.0912131460  2.1205538338 -0.1140828056
H  -3.6256838375 -0.0593654926 -0.0329818790
N   1.6057534995  0.0129624614  0.0090633603
O   2.2107904799 -1.0515623344  0.0949906875
O   2.2106489668  1.0777976986 -0.0220434511
C  -1.8567157110 -1.2317604072  0.0389302249
H  -2.4126202911 -2.1558316099 -0.1033995381
C  -0.4618502248 -1.2185087639  0.0028035570
H   0.1133677466 -2.1095215907 -0.2416940965
14
Step 40  E=-436.5581896073  phi=139.161  theta=119.307
C  -1.8786366526  1.1823447062 -0.0287569991
C  -0.5000156653  1.2266929045 -0.0666935480
C   0.1747554924  0.0187806588 -0.0047231765
C  -2.5532956343 -0.0116900419  0.0028121504
H  -2.4337168539  2.0993328916 -0.0392934997
H   0.0950600706  2.1259478939 -0.1154098682
H  -3.6298955286 -0.0565300401 -0.0352178029
N   1.6107378196  0.0119161549  0.0082714987
O   2.2073066004 -1.0525131707  0.0932220829
O   2.2073450683  1.0782511772 -0.0216154248
C  -1.8528655806 -1.2355969639  0.0414061297
H  -2.4223646638 -2.1512841980 -0.1151010928
C  -0.4598768775 -1.2203245081 -0.0065709521
H   0.1243092927 -2.1161902954 -0.1991121361
14
Step 41  E=-436.5587926112  phi=138.971  theta=119.247
C  -1.8782716620  1.1832926183 -0.0281590575
C  -0.4996425543  1.2337165100 -0.0657209453
C   0.1753580386  0.0151539934 -0.0014186670
C  -2.5572697461 -0.0096419927  0.0057325039
H  -2.4344710540  2.0996390695 -0.0429948866
H   0.0980725725  2.1319785446 -0.1166135331
H  -3.6341490700 -0.0531394741 -0.0371088215
N   1.6165007314  0.0108923253  0.0075676880
O   2.2035327012 -1.0533144840  0.0913643891
O   2.2038673966  1.0786132230 -0.0212021929
C  -1.8490570253 -1.2392086344  0.0435944084
H  -2.4309875938 -2.1465513374 -0.1254198417
C  -0.4580893813 -1.2220412065 -0.0160959556
H   0.1345184077 -2.1220795769 -0.1546392384
14
Step 42  E=-436.5586013659  phi=138.787  theta=119.192
C  -1.8779481163  1.1843766340 -0.0275468681
C  -0.4990321523  1.2404143257 -0.0646083916
C   0.1756150874  0.0114855128  0.0017570164
C  -2.5609832582 -0.0080864864  0.0087645497
H  -2.4354610567  2.1008367003 -0.0469810238
H   0.1001523824  2.1385454155 -0.1176750316
H  -3.6383449377 -0.0492519059 -0.0385916683
N   1.6228863206  0.0099034592  0.0069584924
O   2.1995360598 -1.0540090681  0.0894216152
O   2.2002654986  1.0789067413 -0.0208049841
C  -1.8454121586 -1.2425132711  0.0454521778
H  -2.4381695776 -2.1417102384 -0.1341511979
C  -0.4564652461 -1.2236807156 -0.0256635198
H   0.1438217081 -2.1270483630 -0.1089175233
14
Step 43  E=-436.5576422631  phi=138.613  theta=119.143
C  -1.8776868730  1.1856093634 -0.0269200484
C  -0.4981532988  1.2466654070 -0.0633542328
C   0.1755341184  0.0079111347  0.0047634597
C  -2.5643493871 -0.0070672569  0.0118952327
H  -2.4366448969  2.1028525859 -0.0512177489
H   0.1012217169  2.1455224959 -0.1185732310
H  -3.6423646389 -0.0449432909 -0.0396038612
N   1.6297216612  0.0089636108  0.0064496827