14
Step 0  E=-436.5592014051  phi=138.955  theta=117.327
C  -1.8805641275  1.1909069058 -0.1057256003
C  -0.4794744921  1.2078374384 -0.0932711633
C   0.1966492075  0.0145573124  0.0023530321
C  -2.5642999415 -0.0218634202 -0.0468085758
H  -2.4311746828  2.0995668824 -0.2138644947
H   0.0530391507  2.1212168858 -0.1415776542
H  -3.6675502324 -0.0425538506 -0.0407070548
N   1.6491281572  0.0162689474  0.0161356576
O   2.2130685006 -1.0523366756  0.1055873816
O   2.2119582773  1.0850111209 -0.0346511169
C  -1.8804501058 -1.1895715306  0.0576928122
H  -2.4226651457 -2.1434828484  0.0990041972
C  -0.4821071211 -1.2377827177  0.0659880853
H   0.0887574553 -2.1171815818  0.1622242144
14
Step 1  E=-436.5449973554  phi=138.813  theta=117.645
C  -1.8749827466  1.1919671098 -0.0917428836
C  -0.4608841910  1.2078059832 -0.0909195802
C   0.2158124856  0.0272938166  0.0014817544
C  -2.5585449826 -0.0243456195 -0.0474621485
H  -2.4289889111  2.0784706471 -0.2309360749
H   0.0459802299  2.1134106301 -0.1322368426
H  -3.6773021118 -0.0579548617 -0.0161339034
N   1.6452639689  0.0203204507  0.0028080615
O   2.2044976595 -1.0475550100  0.0956720714
O   2.2157268558  1.0802034927 -0.0330982458
C  -1.8892766354 -1.1625446467  0.0629094360
H  -2.4371177662 -2.1277153631  0.0883915684
C  -0.4806394007 -1.2595585706  0.0537783190
H   0.0908539780 -2.1068614341  0.1698080869
14
Step 2  E=-436.5250243743  phi=138.642  theta=117.957
C  -1.8690335244  1.1926011428 -0.0778335966
C  -0.4430297177  1.2075854572 -0.0885076955
C   0.2342206915  0.0390243289  0.0005308011
C  -2.5533966785 -0.0258972997 -0.0479996543
H  -2.4276326207  2.0605656044 -0.2476176986
H   0.0421989236  2.1106576983 -0.1233315825
H  -3.6823394835 -0.0727523455  0.0077849491
N   1.6417479106  0.0243139236 -0.0103686691
O   2.1958537657 -1.0427945302  0.0856777223
O   2.2195477860  1.0755035091 -0.0315742730
C  -1.8973784952 -1.1369427202  0.0681051913
H  -2.4504877621 -2.1092627304  0.0781297756
C  -0.4794592463 -1.2796936876  0.0415468348
H   0.0955817286 -2.1029844880  0.1775867106
14
Step 3  E=-436.5036296890  phi=138.435  theta=118.265
C  -1.8625865827  1.1927037347 -0.0640527498
C  -0.4262157151  1.2071559707 -0.0860143589
C   0.2516052245  0.0494035649 -0.0005294698
C  -2.5491718920 -0.0260166697 -0.0483895098
H  -2.4275362258  2.0471909637 -0.2638353635
H   0.0428339785  2.1148061883 -0.1150042455
H  -3.6816158770 -0.0864996978  0.0306246269
N   1.6386961172  0.0282212189 -0.0233412399
O   2.1871738946 -1.0381376526  0.0755937241
O   2.2234662014  1.0710165392 -0.0300994674
C  -1.9043482245 -1.1135072516  0.0732754959
H  -2.4625289665 -2.0874662149  0.0684748769
C  -0.4787254612 -1.2976322561  0.0293050762
H   0.1041195029 -2.1079828897  0.1858466835
14
Step 4  E=-436.4840760842  phi=138.190  theta=118.571
C  -1.8555712791  1.1922518590 -0.0504627587
C  -0.4106580486  1.2065952785 -0.0834228553
C   0.2677149161  0.0581655875 -0.0017299613
C  -2.5461385131 -0.0242202860 -0.0486060002
H  -2.4286786577  2.0389327786 -0.2794375001
H   0.0482674916  2.1263993795 -0.1073264171
H  -3.6747433200 -0.0987301567  0.0519699793
N   1.6362307307  0.0320149670 -0.0360608640
O   2.1785000566 -1.0336693442  0.0654091292
O   2.2275276689  1.0668438545 -0.0286920607
C  -1.9097896567 -1.0929255434  0.0784178566
H  -2.4731607387 -2.0621476711  0.0597004188
C  -0.4785102247 -1.3130475578  0.0170843705
H   0.1165604464 -2.1224585871  0.1946981146
14
Step 5  E=-436.4675489967  phi=137.907  theta=118.877
C  -1.8479840497  1.1913107194 -0.0371400267
C  -0.3964749617  1.2060870447 -0.0807193448
C   0.2823126535  0.0651187974 -0.0031014046
C  -2.5444828980 -0.0200956331 -0.0486261930
H  -2.4305249334  2.0355706808 -0.2941046708
H   0.0580885052  2.1444667258 -0.1003132729
H  -3.6619953853 -0.1089708352  0.0714519576
N   1.6344737750  0.0356701866 -0.0484838512
O   2.1698796141 -1.0294763848  0.0551128043
O   2.2317766855  1.0630799001 -0.0273681669
C  -1.9133517691 -1.0757695334  0.0835278061
H  -2.4824650599 -2.0336310479  0.0520747480
C  -0.4787714552 -1.3258465836  0.0049486454
H   0.1317072758 -2.1450353182  0.2038925422
14
Step 6  E=-436.4538971995  phi=137.587  theta=119.185
C  -1.8398814157  1.1900197836 -0.0241761688
C  -0.3836998593  1.2058868062 -0.0778903885
C   0.2951753159  0.0701418577 -0.0046736216
C  -2.5442736393 -0.0133568859 -0.0484250032
H  -2.4321188353  2.0362455671 -0.3073209840
H   0.0712990402  2.1668235492 -0.0939500811
H  -3.6443099138 -0.1167639658  0.0887824730
N   1.6335396419  0.0391660744 -0.0605718735
O   2.1613652649 -1.0256464558  0.0446936124
O   2.2362551230  1.0598098474 -0.0261417970
C  -1.9147612582 -1.0624339969  0.0885927013
H  -2.4906884473 -2.0027436302  0.0458405621
C  -0.4793779906 -1.3361125354 -0.0070066131
H   0.1474238235 -2.1729391239  0.2128115673
14
Step 7  E=-436.4428373472  phi=137.233  theta=119.496
C  -1.8313624123  1.1885665900 -0.0116730497
C  -0.3723049668  1.2062629188 -0.0749210338
C   0.3060973308  0.0731800793 -0.0064754329
C  -2.5454309380 -0.0038897235 -0.0479705588
H  -2.4322842410  2.0397581185 -0.3184203683
H   0.0866326699  2.1906866887 -0.0882143328
H  -3.6232882463 -0.1216979291  0.1037889092
N   1.6335265880  0.0424876690 -0.0722918306
O   2.1530144936 -1.0222669897  0.0341406004
O   2.2410007112  1.0571075351 -0.0250249422
C  -1.9138476256 -1.0530884553  0.0935854603
H  -2.4982471582 -1.9707916528  0.0411967652
C  -0.4801626087 -1.3440217492 -0.0186679596
H   0.1612706940 -2.2028849468  0.2206136368
14
Step 8  E=-436.4344571374  phi=136.852  theta=119.811
C  -1.8225480313  1.1871593040  0.0002659030
C  -0.3622234102  1.2074406579 -0.0717941731
C   0.3148971191  0.0742414231 -0.0085349682
C  -2.5477146796  0.0082297771 -0.0472223001
H  -2.4298468103  2.0448707105 -0.3266786140
H   0.1028325725  2.2132831422 -0.0830856197
H  -3.6011566885 -0.1234464769  0.1164442115
N   1.6345078180  0.0456270972 -0.0836153322
O   2.1448886268 -1.0194237614  0.0234431947
O   2.2460456783  1.0550338246 -0.0240277072
C  -1.9105547776 -1.0476597445  0.0984609675
H  -2.5057209772 -1.9394866109  0.0382842671
C  -0.4809684287 -1.3497759559 -0.0299204640
H   0.1710476378 -2.2317907519  0.2264216516
14
Step 9  E=-436.4291661244  phi=136.450  theta=120.131
C  -1.8135634527  1.1860055993  0.0115446952
C  -0.3533640658  1.2095672409 -0.0684910582
C   0.3214259605  0.0733912610 -0.0108801617
C  -2.5507416043  0.0227486025 -0.0461327743
H  -2.4238082673  2.0505292992 -0.3314098971
H   0.1188193335  2.2322550275 -0.0785458594
H  -3.5806257336 -0.1218058426  0.1268795114
N   1.6365230605  0.0485841193 -0.0945178828
O   2.1370517421 -1.0171990854  0.0125913895
O   2.2514156432  1.0536353597 -0.0231584704
C  -1.9049374977 -1.0458545463  0.1031568822
H  -2.5138074752 -1.9107872936  0.0371802654
C  -0.4816731270 -1.3535647575 -0.0406595939
H   0.1750781990 -2.2571466691  0.2294592079
14
Step 10  E=-436.4275612122  phi=136.036  theta=120.456
C  -1.8045247769  1.1852994541  0.0220819541
C  -0.3456206252  1.2126986603 -0.0649924357
C   0.3255777367  0.0707456933 -0.0135391936
C  -2.5540358462  0.0392764688 -0.0446513402
H  -2.4134517525  2.0559878052 -0.3320418840
H   0.1337608875  2.2458463968 -0.0745756393
H  -3.5645736461 -0.1167084174  0.1353582754
N   1.6395719153  0.0513658239 -0.1049779002
O   2.1295692399 -1.0156697376  0.0015759126
O   2.2571287988  1.0529436710 -0.0224240651
C  -1.8971484380 -1.0472195375  0.1075984785
H  -2.5232054652 -1.8866351631  0.0379070999
C  -0.4821941607 -1.3555518345 -0.0507972208
H   0.1722825039 -2.2771177230  0.2291171118
14
Step 11  E=-436.4301924353  phi=135.618  theta=120.786
C  -1.7955294849  1.1852140560  0.0318157999
C  -0.3388782978  1.2168011380 -0.0612798706
C   0.3272977939  0.0664637769 -0.0165406546
C  -2.5571067141  0.0573362339 -0.0427263885
H  -2.3983902862  2.0608584836 -0.3281636408
H   0.1470877218  2.2529494327 -0.0711506376
H  -3.5555309563 -0.1081887505  0.1421957339
N   1.6436102990  0.0539852952 -0.1149757410
O   2.1225062042 -1.0149045557 -0.0096116444
O   2.2631953876  1.0529745963 -0.0218299752
C  -1.8874243296 -1.0512232211  0.1117054453
H  -2.5344188375 -1.8686111416  0.0404574876
C  -0.4824839290 -1.3558729117 -0.0602639122
H   0.1621469863 -2.2905196347  0.2249734716
14
Step 12  E=-436.4370640036  phi=135.205  theta=121.118
C  -1.7866494394  1.1858980336  0.0407068181
C  -0.3330206348  1.2217593285 -0.0573370017
C   0.3265891301  0.0607393116 -0.0199132613
C  -2.5595347790  0.0764094298 -0.0403042310
H  -2.3785805104  2.0651212252 -0.3195517534
H   0.1584908673  2.2530923718 -0.0682396880
H  -3.5550721320 -0.0962989928  0.1476365303
N   1.6485509895  0.0564592301 -0.1244929316
O   2.1159255894 -1.0149617080 -0.0209787454
O   2.2696174340  1.0537280049 -0.0213805460
C  -1.8760764297 -1.0573350042  0.1153984924
H  -2.5475268539 -1.8576152666  0.0448269996
C  -0.4825221500 -1.3546366622 -0.0690099540
H   0.1446723753 -2.2967703495  0.2167953384
14
Step 13  E=-436.4471389894  phi=134.806  theta=121.453
C  -1.7779259925  1.1874725925  0.0487396749
C  -0.3279374405  1.2273858762 -0.0531505985
C   0.3235146280  0.0537927544 -0.0236850285
C  -2.5610381129  0.0959704547 -0.0373270196
H  -2.3543185904  2.0691159450 -0.3061815940
H   0.1679243975  2.2464212380 -0.0658048236
H  -3.5633609748 -0.0810147634  0.1517455740
N   1.6542685739  0.0588047279 -0.1335117586
O   2.1098862615 -1.0158857351 -0.0325318865
O   2.2763886820  1.0551878197 -0.0210792066
C  -1.8634822050 -1.0650798329  0.1186051223
H  -2.5620220812 -1.8537053963  0.0510351312
C  -0.4823096059 -1.3519239383 -0.0770065911
H   0.1203395192 -2.2958713000  0.2045399406
14
Step 14  E=-436.4583658223  phi=134.429  theta=121.786
C  -1.7693677585  1.1900282702  0.0559235164
C  -0.3235335431  1.2334299225 -0.0487113496
C   0.3181949612  0.0458635958 -0.0278819276
C  -2.5614952998  0.1155123039 -0.0337342250
H  -2.3262239062  2.0735267777 -0.2882264139
H   0.1756200816  2.2336945198 -0.0638033236
H  -3.5790902855 -0.0621971031  0.1543778172
N   1.6606083072  0.0610356632 -0.1420152995
O   2.1044410723 -1.0177045124 -0.0442766275
O   2.2834946992  1.0573223496 -0.0209286985
C  -1.8500716239 -1.0740588397  0.1212647767
H  -2.5768112416 -1.8561694511  0.0591203680
C  -0.4818648757 -1.3477836453 -0.0842479323
H   0.0901023207 -2.2884378176  0.1883622399
14
Step 15  E=-436.4683486208  phi=134.082  theta=122.118
C  -1.7609522854  1.1936218460  0.0622907675
C  -0.3197372540  1.2395851204 -0.0440143692
C   0.3108028188  0.0372032973 -0.0325262012
C  -2.5609227569  0.1345681058 -0.0294693061
H  -2.2952048791  2.0793502479 -0.2660408985
H   0.1821096394  2.2162809978 -0.0621917891
H  -3.5998454996 -0.0396412247  0.1552449355
N   1.6673975923  0.0631591983 -0.1499878665
O   2.0996350540 -1.0204264698 -0.0562176392
O   2.2909131369  1.0600849407 -0.0209313066
C  -1.8363054553 -1.0839416858  0.1233332798
H  -2.5903897550 -1.8637806569  0.0691120634
C  -0.4812239143 -1.3422256592 -0.0907530502
H   0.0553943736 -2.2757719993  0.1686251775
14
Step 16  E=-436.4752583641  phi=133.772  theta=122.444
C  -1.7526328727  1.1982756209  0.0678936287
C  -0.3165065163  1.2455001208 -0.0390594153
C   0.3015544132  0.0280688284 -0.0376345551
C  -2.5594263649  0.1527298693 -0.0244886078
H  -2.2623929176  2.0878238475 -0.2401211434
H   0.1882360863  2.1961229207 -0.0609318394
H  -3.6226859789 -0.0131780388  0.1540330920
N   1.6744583740  0.0651730271 -0.1574157366
O   2.0955038729 -1.0240384523 -0.0683587333
O   2.2986141643  1.0634149430 -0.0210890861
C  -1.8226497433 -1.0944463169  0.1247859708
H  -2.6011079050 -1.8751060313  0.0809961755
C  -0.4804402008 -1.3352140966 -0.0965668067
H   0.0181141827 -2.2599369647  0.1458972277
14
Step 17  E=-436.4785773604  phi=133.504  theta=122.764
C  -1.7443510255  1.2039820806  0.0727977725
C  -0.3138295212  1.2507968545 -0.0338509311
C   0.2907001259  0.0187169309 -0.0432165559
C  -2.5571512933  0.1696616288 -0.0187679226
H  -2.2290299827  2.1002825374 -0.2110342131
H   0.1951188391  2.1756013637 -0.0599957200
H  -3.6446862530  0.0172321653  0.1505085272
N   1.6816188117  0.0670637609 -0.1642880233
O   2.0920728513 -1.0285044834 -0.0807028463
O   2.3065611089  1.0672390126 -0.0214040698
C  -1.8095531545 -1.1053188228  0.1256188759
H  -2.6074232815 -1.8887575733  0.0946907910
C  -0.4795804819 -1.3266692050 -0.1017569140
H  -0.0194667783 -2.2437368751  0.1209085758
14
Step 18  E=-436.4794124268  phi=133.283  theta=123.075
C  -1.7360540319  1.2107172153  0.0770736729
C  -0.3117157509  1.2551027365 -0.0283982634
C   0.2785156154  0.0093994998 -0.0492735125
C  -2.5542444775  0.1851059619 -0.0123047475
H  -2.1963096546  2.1179218655 -0.1793222773
H   0.2040262339  2.1572359362 -0.0593677864
H  -3.6632985287  0.0514499348  0.1445772896
N   1.6887229414  0.0688067086 -0.1705975505
O   2.0893565290 -1.0337657895 -0.0932519404
O   2.3147113049  1.0714727163 -0.0218784416
C  -1.7974301277 -1.1163197630  0.1258480218
H  -2.6080786997 -1.9035462702  0.1100371009
C  -0.4787111441 -1.3164901723 -0.1064044641
H  -0.0549373564 -2.2304495659  0.0944346617
14
Step 19  E=-436.4799957632  phi=133.112  theta=123.374
C  -1.7277140552  1.2184610135  0.0807879197
C  -0.3101753650  1.2580977863 -0.0227164848
C   0.2652941728  0.0003606121 -0.0557979438
C  -2.5508315980  0.1988838836 -0.0051167460
H  -2.1652010877  2.1414905791 -0.1454086901
H   0.2161266469  2.1432041101 -0.0590357667
H  -3.6765336026  0.0891511471  0.1363004247
N   1.6956375649  0.0703669728 -0.1763416030
O   2.0873589159 -1.0397420917 -0.1060068343
O   2.3230171430  1.0760224153 -0.0225146613
C  -1.7866493929 -1.1272170452  0.1255073493
H  -2.6022011373 -1.9185547319  0.1268034835
C  -0.4778739532 -1.3046104279 -0.1105877252
H  -0.0861350601 -2.2231771311  0.0671058623
14
Step 20  E=-436.4822426784  phi=132.995  theta=123.660
C  -1.7193427483  1.2272178497  0.0839982059
C  -0.3091908808  1.2595667545 -0.0168280398
C   0.2513407102 -0.0081644014 -0.0627736569
C  -2.5470046304  0.2108900902  0.0027617535
H  -2.1363146070  2.1710035363 -0.1095505668
H   0.2321582740  2.1347941749 -0.0589683977
H  -3.6830220950  0.1298489180  0.1258811980
N   1.7022561967  0.0717016700 -0.1815224778
O   2.0860742230 -1.0463341765 -0.1189669641
O   2.3314272463  1.0807873704 -0.0233155303
C  -1.7775247685 -1.1377835267  0.1246456687
H  -2.5893474243 -1.9331635071  0.1446987007
C  -0.4770608699 -1.2910784791 -0.1143653459
H  -0.1115770269 -2.2238981530  0.0392183894
14
Step 21  E=-436.4863017556  phi=132.933  theta=123.929
C  -1.7109958189  1.2370263470  0.0867546247
C  -0.3086930820  1.2594354145 -0.0107646190
C   0.2369674824 -0.0159480548 -0.0701763526
C  -2.5428154046  0.2210851036  0.0112837400
H  -2.1098655909  2.2056046459 -0.0718695286
H   0.2521517036  2.1320344069 -0.0590858444
H  -3.6820205965  0.1729273996  0.1136394861
N   1.7085004529  0.0727628991 -0.1861478241
O   2.0854879691 -1.0534274831 -0.1321301175
O   2.3398876978  1.0856619866 -0.0242841905
C  -1.7703053714 -1.1477965827  0.1233225606
H  -2.5695247129 -1.9470614319  0.1633922381
C  -0.4762073985 -1.2761256035 -0.1177701242
H  -0.1307029685 -2.2326697348  0.0106806326
14
Step 22  E=-436.4905349417  phi=132.929  theta=124.177
C  -1.7027658915  1.2479518356  0.0891063640
C  -0.3085549423  1.2577725060 -0.0045678444
C   0.2224909552 -0.0227691438 -0.0779746800
C  -2.5382720653  0.2294855747  0.0203931194
H  -2.0857472542  2.2436610836 -0.0324466242
H   0.2753604107  2.1337119038 -0.0592394466
H  -3.6734042143  0.2176798293  0.0999816417
N   1.7143194273  0.0735010598 -0.1902307496
O   2.0855782618 -1.0608963896 -0.1454921793
O   2.3483431952  1.0905380933 -0.0254240500
C  -1.7651642343 -1.1570379056  0.1216030846
H  -2.5432010863 -1.9602569756  0.1825415497
C  -0.4752166831 -1.2601737531 -0.1208185279
H  -0.1437739264 -2.2475243896 -0.0188402517
14
Step 23  E=-436.4929055453  phi=132.985  theta=124.402
C  -1.6947671971  1.2600641253  0.0911096310
C  -0.3086074051  1.2547580486  0.0017123414
C   0.2082290303 -0.0284122165 -0.0861317538
C  -2.5333372769  0.2361535940  0.0300277643
H  -2.0636675491  2.2830519213  0.0085714917
H   0.3004425637  2.1377701167 -0.0592149810
H  -3.6576605584  0.2633493200  0.0853686516
N   1.7196875867  0.0738681981 -0.1937897192
O   2.0863171551 -1.0686087964 -0.1590469314
O   2.3567382554  1.0953070993 -0.0267386954
C  -1.7621874314 -1.1652924421  0.1195515309
H  -2.5113036048 -1.9730921040  0.2018256792
C  -0.4740032386 -1.2437767212 -0.1235276865
H  -0.1515237087 -2.2651407388 -0.0496720528
14
Step 24  E=-436.4923113951  phi=133.101  theta=124.601
C  -1.6871179979  1.2734108156  0.0928326212
C  -0.3086682253  1.2506373751  0.0080213298
C   0.1944975365 -0.0326700108 -0.0946070031
C  -2.5279289213  0.2411853743  0.0401222533
H  -2.0432873096  2.3215254842  0.0509035032
H   0.3257845271  2.1418597948 -0.0587579856
H  -3.6358770520  0.3091735629  0.0702822328
N   1.7246016361  0.0738209926 -0.1968482853
O   2.0876719462 -1.0764306102 -0.1727859445
O   2.3650180942  1.0998620883 -0.0282317418
C  -1.7613684334 -1.1723469566  0.1172251602
H  -2.4751827406 -1.9862428960  0.2209826060
C  -0.4725319788 -1.2275339010 -0.1259270601
H  -0.1548041391 -2.2818139109 -0.0819540996
14
Step 25  E=-436.4889634668  phi=133.278  theta=124.772
C  -1.6799251686  1.2879961591  0.0943561014
C  -0.3085701449  1.2456815736  0.0143042847
C   0.1816051559 -0.0353501713 -0.1033583918
C  -2.5219255308  0.2446999376  0.0506105802
H  -2.0243187771  2.3570056103  0.0941182213
H   0.3498131715  2.1438029668 -0.0576063601
H  -3.6096928449  0.3544332368  0.0551883650
N   1.7290768174  0.0733231351 -0.1994346876
O   2.0896063602 -1.0842298393 -0.1866985725
O   2.3731294145  1.1040996983 -0.0299066095
C  -1.7626129407 -1.1779913010  0.1146694922
H  -2.4365095392 -2.0006708339  0.2398426107
C  -0.4708368558 -1.2120191001 -0.1280600391
H  -0.1543736669 -2.2942157077 -0.1155841692
14
Step 26  E=-436.4840778479  phi=133.519  theta=124.914
C  -1.6732725096  1.3037696462  0.0957707114
C  -0.3081802693  1.2401631798  0.0205100525
C   0.1698463349 -0.0362866834 -0.1123446616
C  -2.5151796479  0.2468290937  0.0614288201
H  -2.0065759421  2.3877924974  0.1376631441
H   0.3712086542  2.1418671290 -0.0555175784
H  -3.5811725324  0.3984960303  0.0405014475
N   1.7331428730  0.0723471296 -0.2015813813
O   2.0920816898 -1.0918801185 -0.2007720507
O   2.3810215139  1.1079215219 -0.0317663562
C  -1.7657575480 -1.1820277781  0.1119168925
H  -2.3970793106 -2.0174739453  0.2583400111
C  -0.4690178267 -1.1977377409 -0.1299794883
H  -0.1508278211 -2.2997731798 -0.1502579890
14
Step 27  E=-436.4793180588  phi=133.821  theta=125.028
C  -1.6672128255  1.3206230903  0.0971726685
C  -0.3074109209  1.2343453932  0.0265940748
C   0.1594919627 -0.0353562267 -0.1215273763
C  -2.5075413494  0.2477107862  0.0725171366
H  -1.9899893711  2.4126645318  0.1809153679
H   0.3890070921  2.1348789589 -0.0522857954
H  -3.5525644936  0.4408366640  0.0265582136
N   1.7368397942  0.0708752632 -0.2033245523
O   2.0950577761 -1.0992635236 -0.2149916878
O   2.3886463601  1.1112356403 -0.0338134444
C  -1.7706000796 -1.1842924067  0.1089897501
H  -2.3585376261 -2.0376054106  0.2764796637
C  -0.4672226986 -1.1851034868 -0.1317422757
H  -0.1446066246 -2.2967612175 -0.1855396065
14
Step 28  E=-436.4761375607  phi=134.185  theta=125.117
C  -1.6617635801  1.3383930428  0.0986589939
C  -0.3062234185  1.2284787338  0.0325204126
C   0.1507789721 -0.0324973666 -0.1308724625
C  -2.4988907332  0.2474880546  0.0838200832
H  -1.9746033946  2.4309156725  0.2232371943
H   0.4026390545  2.1222434291 -0.0477494848
H  -3.5259489856  0.4810097816  0.0136167828
N   1.7402137775  0.0689001206 -0.2047036176
O   2.0984937383 -1.1062727404 -0.2293411213
O   2.3959591463  1.1139576179 -0.0360494943
C  -1.7769321185 -1.1846854085  0.1059083076
H  -2.3221086779 -2.0615042956  0.2942544200
C  -0.4656227722 -1.1744223269 -0.1334054184
H  -0.1360235893 -2.2842671699 -0.2209270058
14
Step 29  E=-436.4751497846  phi=134.609  theta=125.182
C  -1.6569059371  1.3568653211  0.1003227173
C  -0.3046283078  1.2227997774  0.0382631483
C   0.1439003323 -0.0277296608 -0.1403509835
C  -2.4891717776  0.2463141929  0.0952844163
H  -1.9605679909  2.4423631107  0.2640295088
H   0.4119417347  2.1039307153 -0.0417938913
H  -3.5028574422  0.5185690903  0.0018900689
N   1.7433135573  0.0664246847 -0.2057607448
O   2.1023486651 -1.1128125908 -0.2438026171
O   2.4029189442  1.1160111121 -0.0384750705
C  -1.7845602787 -1.1831989759  0.1027005522
H  -2.2884497630 -2.0887803114  0.3115461425
C  -0.4643890430 -1.1658767246 -0.1350239307
H  -0.1252865327 -2.2621415864 -0.2559057941
14
Step 30  E=-436.4758112879  phi=135.086  theta=125.228
C  -1.6525868603  1.3757799092  0.1022481008
C  -0.3026844743  1.2175285989  0.0438073906
C   0.1389971448 -0.0211684850 -0.1499391284
C  -2.4784151033  0.2443609496  0.1068550765
H  -1.9481306149  2.4473458305  0.3027835286
H   0.4171693436  2.0804676188 -0.0343512438
H  -3.4840054466  0.5529621588 -0.0083970996
N   1.7461873025  0.0634620397 -0.2065403830
O   2.1065822271 -1.1188009715 -0.2583574082
O   2.4094889523  1.1173283292 -0.0410895115
C  -1.7933081946 -1.1799267490  0.0994088504
H  -2.2577181946 -2.1181237969  0.3280576799
C  -0.4636742893 -1.1595093270 -0.1366491732
H  -0.1124970364 -2.2309900819 -0.2899992686
14
Step 31  E=-436.4766497321  phi=135.612  theta=125.260
C  -1.6487239262  1.3948360809  0.1045058565
C  -0.3004975786  1.2128634899  0.0491498800
C   0.1361545730 -0.0130305754 -0.1596174882
C  -2.4667396537  0.2418240266  0.1184717338
H  -1.9376284513  2.4467170784  0.3391321272
H   0.4190120030  2.0529412159 -0.0253993718
H  -3.4692569920  0.5834620341 -0.0169544666
N   1.7488802651  0.0600348599 -0.2070888281
O   2.1111551259 -1.1241693249 -0.2729860207
O   2.4156365936  1.1178502853 -0.0438907727
C  -1.8030030151 -1.1750486670  0.0960895224
H  -2.2298015916 -2.1475120086  0.3433153504
C  -0.4636044199 -1.1552102398 -0.1383263865
H  -0.0976236549 -2.1922126814 -0.3228274469
14
Step 32  E=-436.4759400608  phi=136.178  theta=125.280
C  -1.6452122456  1.4136990619  0.1071486073
C  -0.2982169496  1.2089736201  0.0542989216
C   0.1354023429 -0.0036270487 -0.1693697842
C  -2.4543334730  0.2389213702  0.1300681843
H  -1.9294781070  2.4418169231  0.3728970490
H   0.4186143689  2.0229978895 -0.0149569774
H  -3.4578212433  0.6091841700 -0.0234059816
N   1.7514332590  0.0561747227 -0.2074537915
O   2.1160294956 -1.1288627104 -0.2876685931
O   2.4213336536  1.1175268826 -0.0468753057
C  -1.8134585978 -1.1687996318  0.0928064473
H  -2.2045675353 -2.1746056003  0.3567449797
C  -0.4642790627 -1.1527139710 -0.1400905949
H  -0.0804526071 -2.1480508550 -0.3541814572
14
Step 33  E=-436.4725649632  phi=136.775  theta=125.295
C  -1.6419330104  1.4320109599  0.1102074749
C  -0.2960283716  1.2059926009  0.0592731172
C   0.1367192348  0.0066567073 -0.1791812247
C  -2.4414236439  0.2358840195  0.1415750147
H  -1.9241563249  2.4343965062  0.4041207263
H   0.4175607949  1.9927960731 -0.0030719081
H  -3.4485690129  0.6291832372 -0.0273114101
N   1.7538818894  0.0519212186 -0.2076839586
O   2.1211693038 -1.1328395663 -0.3023851981
O   2.4265564663  1.1163168649 -0.0500379917
C  -1.8244661558 -1.1614366227  0.0896224429
H  -2.1820276917 -2.1971491331  0.3677742142
C  -0.4657780296 -1.1516142712 -0.1419615053
H  -0.0605389574 -2.1015489143 -0.3840998990
14
Step 34  E=-436.4667847461  phi=137.391  theta=125.308
C  -1.6387636212  1.4494090260  0.1136915279
C  -0.2941382601  1.2040182349  0.0640983198
C   0.1400399579  0.0173917056 -0.1890365985
C  -2.4282472767  0.2329431817  0.1529240738
H  -1.9221622655  2.4264581077  0.4330636385
H   0.4177685058  1.9648492179  0.0102016832
H  -3.4403348572  0.6425829400 -0.0282132117
N   1.7562563717  0.0473208025 -0.2078285520
O   2.1265409232 -1.1360711751 -0.3171161537
O   2.4312861689  1.1141877228 -0.0533721210
C  -1.8357952155 -1.1532140915  0.0865918423
H  -2.1623942901 -2.2132545605  0.3759147729
C  -0.4681659617 -1.1514064685 -0.1439410093
H  -0.0372158336 -2.0562885723 -0.4129018081
14
Step 35  E=-436.4604412970  phi=138.016  theta=125.324
C  -1.6355897542  1.4655527665  0.1175921638
C  -0.2927442931  1.2031240056  0.0688026809
C   0.1452624439  0.0281415522 -0.1989181174
C  -2.4150302396  0.2303178574  0.1640528482
H  -1.9239519511  2.4199876924  0.4601450800
H   0.4212231043  1.9417007094  0.0248369701
H  -3.4321295997  0.6486913628 -0.0256855218
N   1.7585817430  0.0424254024 -0.2079369230
O   2.1321135571 -1.1385410739 -0.3318423314
O   2.4355089841  1.1111155864 -0.0568694098
C  -1.8472019058 -1.1443690486  0.0837560509
H  -2.1460598343 -2.2215463968  0.3808128763
C  -0.4714848939 -1.1515625572 -0.1460199927
H  -0.0097553126 -2.0157830254 -0.4411031350
14
Step 36  E=-436.4560581039  phi=138.639  theta=125.346
C  -1.6323192311  1.4801574527  0.1218933857
C  -0.2919920087  1.2033826322  0.0734107926
C   0.1522540137  0.0384978852 -0.2088030224
C  -2.4019741629  0.2282051063  0.1749076323
H  -1.9298433008  2.4166030602  0.4858171486
H   0.4295420042  1.9254424169  0.0408667187
H  -3.4232573626  0.6470793497 -0.0193716129
N   1.7608782738  0.0372908320 -0.2080582034
O   2.1378598187 -1.1402443723 -0.3465454295
O   2.4392164662  1.1070851681 -0.0605200318
C  -1.8584403330 -1.1351120073  0.0811418876
H  -2.1335446215 -2.2212087293  0.3822738291
C  -0.4757279318 -1.1516264175 -0.1481989712
H   0.0222609599 -1.9826225411 -0.4691643748
14
Step 37  E=-436.4551639647  phi=139.249  theta=125.383
C  -1.6288959642  1.4930257210  0.1265858984
C  -0.2919277965  1.2048909173  0.0779391356
C   0.1608555692  0.0481097438 -0.2186610123
C  -2.3892491709  0.2267730254  0.1854453383
H  -1.9399083834  2.4172116873  0.5103961306
H   0.4434809520  1.9172249035  0.0583896896
H  -3.4133670410  0.6376227263 -0.0090072446
N   1.7631619140  0.0319751297 -0.2082410179
O   2.1437564254 -1.1411871630 -0.3612082519
O   2.4424056879  1.1020898019 -0.0643126553
C  -1.8692733584 -1.1256195168  0.0787614925
H  -2.1254437076 -2.2119897149  0.3802702625
C  -0.4808033709 -1.1512904842 -0.1505154289
H   0.0584794900 -1.9577820090 -0.4971465775
14
Step 38  E=-436.4573227828  phi=139.840  theta=125.439
C  -1.6253104230  1.5040653543  0.1316795742
C  -0.2924691073  1.2077774233  0.0823947851
C   0.1708839591  0.0567040177 -0.2284517311
C  -2.3769894905  0.2261560066  0.1956342732
H  -1.9538900162  2.4218158866  0.5339160190
H   0.4626219978  1.9170034487  0.0775324129
H  -3.4024710778  0.6205183849  0.0055673450
N   1.7654445640  0.0265370772 -0.2085332209
O   2.1497845538 -1.1413862114 -0.3758150052
O   2.4450793100  1.0961316252 -0.0682344761
C  -1.8794800988 -1.1160258375  0.0766125761
H  -2.1223874092 -2.1942062240  0.3749438716
C  -0.4865160664 -1.1504128665 -0.1530591308
H   0.0975222733 -1.9405548059 -0.5245060031
14
Step 39  E=-436.4607957604  phi=140.402  theta=125.526
C  -1.6216027425  1.5132852419  0.1372083415
C  -0.2934087368  1.2121826154  0.0867770351
C   0.1821336000  0.0640960344 -0.2381227955
C  -2.3652901614  0.2264517395  0.2054542458
H  -1.9711827251  2.4295590674  0.5560752146
H   0.4854384076  1.9236695691  0.0983784678
H  -3.3909497209  0.5962816306  0.0244041146
N   1.7677340541  0.0210350214 -0.2089816078
O   2.1559295750 -1.1408689182 -0.3903516014
O   2.4472457589  1.0892218439 -0.0722712414
C  -1.8888590666 -1.1064130548  0.0746782156
H  -2.1250189058 -2.1687682540  0.3666072881
C  -0.4925852119 -1.1489735849 -0.1559622971
H   0.1371522898 -1.9291381853 -0.5501886311
14
Step 40  E=-436.4639373891  phi=140.930  theta=125.651
C  -1.6178570089  1.5207718623  0.1432255043
C  -0.2944506236  1.2182212765  0.0910795341
C   0.1943783461  0.0701907394 -0.2476088857
C  -2.3542052413  0.2277200758  0.2148960788
H  -1.9908924029  2.4389881451  0.5763001557
H   0.5096984647  1.9354763162  0.1209049524
H  -3.3795388993  0.5657240205  0.0474528774
N   1.7700339100  0.0155254558 -0.2096316326
O   2.1621817375 -1.1396730973 -0.4048059412
O   2.4489194694  1.0813812268 -0.0764072527
C  -1.8972273072 -1.0968009416  0.0729261185
H  -2.1339876604 -2.1372166343  0.3557458565
C  -0.4986881887 -1.1470093656 -0.1593719529
H   0.1747630750 -1.9214202626 -0.5729339738
14
Step 41  E=-436.4660726971  phi=141.420  theta=125.824
C  -1.6141885948  1.5266571312  0.1497927490
C  -0.2952582656  1.2259486625  0.0952911102
C   0.2073747994  0.0749758649 -0.2568323780
C  -2.3437497306  0.2299846209  0.2239602319
H  -2.0119519770  2.4484084165  0.5938861999
H   0.5329764158  1.9505159416  0.1449570240
H  -3.3692794349  0.5299038999  0.0745792553
N   1.7723429602  0.0100617386 -0.2105270863
O   2.1685348182 -1.1378471843 -0.4191682334
O   2.4501209063  1.0726408729 -0.0806253896
C  -1.9044167805 -1.0871401735  0.0713083191
H  -2.1499529900 -2.1017338093  0.3430088840
C  -0.5045071823 -1.1445656766 -0.1634223390
H   0.2078624777 -1.9155504150 -0.5915792583
14
Step 42  E=-436.4676407053  phi=141.868  theta=126.053
C  -1.6107282336  1.5310889934  0.1569683082
C  -0.2954977238  1.2353447866  0.0993955143
C   0.2208676317  0.0785091036 -0.2657057123
C  -2.3339087167  0.2332380108  0.2326543199
H  -2.0332517647  2.4562010827  0.6081495568
H   0.5530590178  1.9670647807  0.1702608752
H  -3.3613908714  0.4900411102  0.1055979985
N   1.7746549981  0.0046922704 -0.2117098286
O   2.1749856451 -1.1354499407 -0.4334310759
O   2.4508764937  1.0630432455 -0.0849071058
C  -1.9102702074 -1.0773166336  0.0697632662
H  -2.1735835600 -2.0650441785  0.3291686239
C  -0.5097605681 -1.1416761244 -0.1682182505
H   0.2343839931 -1.9101788615 -0.6052375062
14
Step 43  E=-436.4699133798  phi=142.269  theta=126.340
C  -1.6076058699  1.5342107970  0.1647980609
C  -0.2948683940  1.2463173989  0.1033714179
C   0.2345966703  0.0809019185 -0.2741351787
C  -2.3246566414  0.2374504591  0.2409899687
H  -2.0537514456  2.4610375170  0.6185433762
H   0.5681713948  1.9837545155  0.1964583936
H  -3.3570384562  0.4474028780  0.1403168219
N   1.7769585545 -0.0005416198 -0.2132195495