14
Step 0  E=-436.5187415798  phi=66.275  theta=64.314
C  -1.9018230444  1.1727151623 -0.0477835596
C  -0.4769806734  1.2089408141 -0.0526090021
C   0.1990308842  0.0321072303 -0.0408430118
C  -2.6171519577 -0.0300003247 -0.0148548115
H  -2.4418521126  2.1136697642 -0.0591362567
H   0.0612692052  2.1481140463 -0.0520290417
H  -3.6989037999 -0.0202392208 -0.0040707171
N   1.6710933086  0.0356296537  0.0208333039
O   2.2179887722 -1.0815970869  0.1287599796
O   2.2435226644  1.1377760938 -0.0391085175
C  -1.9264767100 -1.2274990768  0.0051283570
H  -2.4535616625 -2.1746580820  0.0390642331
C  -0.4586833920 -1.2762948694 -0.0365674448
H   0.0227193988 -2.0243484958  0.5967554726
14
Step 1  E=-436.5203976683  phi=66.230  theta=64.306
C  -1.9015248531  1.1725805191 -0.0478156701
C  -0.4778080530  1.2090836404 -0.0527784511
C   0.1987316925  0.0307614078 -0.0409304057
C  -2.6167634829 -0.0295772744 -0.0150296222
H  -2.4415953690  2.1128138691 -0.0589748621
H   0.0603988208  2.1466049028 -0.0522884855
H  -3.6987564763 -0.0198466757 -0.0038224926
N   1.6717036894  0.0355179444  0.0209142390
O   2.2177801988 -1.0804936654  0.1287348338
O   2.2431392856  1.1367409109 -0.0391370274
C  -1.9250277010 -1.2277846005  0.0049931810
H  -2.4529850384 -2.1730808558  0.0402845311
C  -0.4597211801 -1.2747673366 -0.0354637870
H   0.0238539766 -2.0273789676  0.5891065277
14
Step 2  E=-436.5230277556  phi=66.157  theta=64.293
C  -1.9010320237  1.1723597430 -0.0478695504
C  -0.4791727150  1.2092853574 -0.0530602825
C   0.1982305018  0.0285612423 -0.0410739770
C  -2.6161127259 -0.0288934177 -0.0153187776
H  -2.4412068798  2.1114691606 -0.0587063941
H   0.0590449154  2.1442758139 -0.0527196749
H  -3.6984729381 -0.0192033687 -0.0034153072
N   1.6726942380  0.0353293727  0.0210473455
O   2.2174432750 -1.0786743690  0.1286948859
O   2.2425081201  1.1350327964 -0.0391853266
C  -1.9226398856 -1.2282283300  0.0047719184
H  -2.4520657198 -2.1706158269  0.0423006658
C  -0.4614341368 -1.2722445371 -0.0336385105
H   0.0257645629 -2.0324253449  0.5764548307
14
Step 3  E=-436.5264532168  phi=66.057  theta=64.274
C  -1.9003512884  1.1720586713 -0.0479457480
C  -0.4810527746  1.2094951669 -0.0534535657
C   0.1975242623  0.0255697070 -0.0412705869
C  -2.6151949674 -0.0279795047 -0.0157189610
H  -2.4407404284  2.1097486696 -0.0583318078
H   0.0573394360  2.1413804155 -0.0533209938
H  -3.6980010636 -0.0183255870 -0.0028588872
N   1.6740253093  0.0350606047  0.0212299218
O   2.2169939454 -1.0761688448  0.1286430755
O   2.2416407830  1.1326775070 -0.0392545946
C  -1.9193547638 -1.2287848267  0.0044706518
H  -2.4508573720 -2.1674875281  0.0450857038
C  -0.4637959250 -1.2687627813 -0.0311116524
H   0.0284678907 -2.0394621830  0.5589306917
14
Step 4  E=-436.5304504493  phi=65.936  theta=64.249
C  -1.8994930075  1.1716861845 -0.0480450339
C  -0.4834167280  1.2096490121 -0.0539568960
C   0.1966101226  0.0218724003 -0.0415158264
C  -2.6140040598 -0.0268764878 -0.0162254897
H  -2.4402612028  2.1077923956 -0.0578527779
H   0.0554416090  2.1382246163 -0.0540905547
H  -3.6972769789 -0.0172359073 -0.0021667221
N   1.6756423840  0.0347074654  0.0214581425
O   2.2164543105 -1.0730186477  0.1285835098
O   2.2405533562  1.1297110225 -0.0393464913
C  -1.9152317675 -1.2293957809  0.0040979696
H  -2.4494180610 -2.1639703633  0.0486010421
C  -0.4667671991 -1.2643760709 -0.0279091577
H   0.0319631106 -2.0484178336  0.5366911577
14
Step 5  E=-436.5347667010  phi=65.796  theta=64.219
C  -1.8984719576  1.1712547345 -0.0481684037
C  -0.4862226382  1.2096758395 -0.0545683136
C   0.1954866351  0.0175751987 -0.0418040199
C  -2.6125328835 -0.0256336036 -0.0168322900
H  -2.4398370276  2.1057514824 -0.0572720254
H   0.0535148116  2.1351227852 -0.0550264778
H  -3.6962327338 -0.0159629801 -0.0013559113
N   1.6774770807  0.0342654064  0.0217270255
O   2.2158523722 -1.0692772186  0.1285214508
O   2.2392661822  1.1261794132 -0.0394631625
C  -1.9103493853 -1.2299947251  0.0036650306
H  -2.4477952595 -2.1603537486  0.0527953144
C  -0.4702934762 -1.2591587433 -0.0240614114
H   0.0362108894 -2.0591428741  0.5099030739
14
Step 6  E=-436.5391315694  phi=65.643  theta=64.183
C  -1.8973081296  1.1707807803 -0.0483170747
C  -0.4894172885  1.2095044612 -0.0552852268
C   0.1941550392  0.0128014835 -0.0421282496
C  -2.6107739316 -0.0243061404 -0.0175318838
H  -2.4395289914  2.1037712690 -0.0565937202
H   0.0517011716  2.1323504156 -0.0561271278
H  -3.6948043943 -0.0145412598 -0.0004469397
N   1.6794485006  0.0337300724  0.0220304049
O   2.2152216585 -1.0650097592  0.1284632895
O   2.2378035629  1.1221385968 -0.0396072425
C  -1.9048062313 -1.2305122332  0.0031856278
H  -2.4460100497 -2.1569050515  0.0576028733
C  -0.4743029757 -1.2532079668 -0.0196022145
H   0.0411127126 -2.0713774372  0.4787325567
14
Step 7  E=-436.5432680265  phi=65.481  theta=64.140
C  -1.8960273796  1.1702849776 -0.0484924751
C  -0.4929355961  1.2090701479 -0.0561043559
C   0.1926204701  0.0076890279 -0.0424804072
C  -2.6087200181 -0.0229530215 -0.0183153986
H  -2.4393827560  2.1019754603 -0.0558239359
H   0.0500979657  2.1301008592 -0.0573912507
H  -3.6929395949 -0.0130106742  0.0005366229
N   1.6814649274  0.0330979330  0.0223609216
O   2.2146006903 -1.0602929261  0.1284165042
O   2.2361933423  1.1176539278 -0.0397818514
C  -1.8987216801 -1.2308810004  0.0026762229
H  -2.4440435295 -2.1538361532  0.0629420263
C  -0.4787049663 -1.2466453243 -0.0145686777
H   0.0464953344 -2.0847256077  0.4433457945
14
Step 8  E=-436.5469071546  phi=65.317  theta=64.092
C  -1.8946617538  1.1697919899 -0.0486962232
C  -0.4967006645  1.2083200611 -0.0570217098
C   0.1908929601  0.0023865769 -0.0428512717
C  -2.6063651053 -0.0216343362 -0.0191726094
H  -2.4394218837  2.1004537174 -0.0549711299
H   0.0487404838  2.1284543442 -0.0588179747
H  -3.6906037445 -0.0114162191  0.0015685000
N   1.6834259111  0.0323669420  0.0227100445
O   2.2140322517 -1.0552142592  0.1283895913
O   2.2344663524  1.1127995620 -0.0399905831
C  -1.8922355983 -1.2310401912  0.0021559040
H  -2.4418287246 -2.1512795153  0.0687134251
C  -0.4833892846 -1.2396166948 -0.0090022713
H   0.0521039111 -2.0986461955  0.4039231251
14
Step 9  E=-436.5498104126  phi=65.155  theta=64.036
C  -1.8932493237  1.1693298142 -0.0489300948
C  -0.5006248249  1.2072168360 -0.0580326076
C   0.1889881227 -0.0029498915 -0.0432306105
C  -2.6037052303 -0.0204089263 -0.0200920223
H  -2.4396442550  2.0992544547 -0.0540465979
H   0.0475952768  2.1273657511 -0.0604066764
H  -3.6877842198 -0.0098074552  0.0026201587
N   1.6852247546  0.0315371646  0.0230681356
O   2.2135624435 -1.0498712359  0.1283919559
O   2.2326557064  1.1076575274 -0.0402374825
C  -1.8855066963 -1.2309385757  0.0016462126
H  -2.4392507391 -2.1492781492  0.0747992067
C  -0.4882275701 -1.2322897276 -0.0029507495
H   0.0576064611 -2.1124651423  0.3606872973
14
Step 10  E=-436.5518011872  phi=65.002  theta=63.974
C  -1.8918334054  1.1689285821 -0.0491959772
C  -0.5046118684  1.2057400045 -0.0591317444
C   0.1869274456 -0.0081612573 -0.0436072920
C  -2.6007395029 -0.0193321133 -0.0210610035
H  -2.4400222139  2.0983838605 -0.0530648480
H   0.0465656981  2.1266738320 -0.0621567433
H  -3.6844921472 -0.0082378904  0.0036613143
N   1.6867514129  0.0306112928  0.0234245715
O   2.2132395123 -1.0443698339  0.1284337499
O   2.2307959332  1.1023164489 -0.0405270066
C  -1.8787091506 -1.2305362389  0.0011708050
H  -2.4361563945 -2.1477910816  0.0810634888
C  -0.4930763764 -1.2248485471  0.0035296185
H   0.0626140330 -2.1254106842  0.3139416410
14
Step 11  E=-436.5527988737  phi=64.863  theta=63.906
C  -1.8904611102  1.1686188997 -0.0494958134
C  -0.5085604548  1.2038854006 -0.0603132864
C   0.1847381362 -0.0130897164 -0.0439693887
C  -2.5974711735 -0.0184536308 -0.0220659456
H  -2.4405064676  2.0978111236 -0.0520438459
H   0.0455088942  2.1261297790 -0.0640672972
H  -3.6807617110 -0.0067642324  0.0046604550
N   1.6878957969  0.0295949735  0.0237679273
O   2.2131124237 -1.0388225172  0.1285256575
O   2.2289219547  1.0968698815 -0.0408639693
C  -1.8720273730 -1.2298049156  0.0007549577
H  -2.4323725825 -2.1467126548  0.0873545642
C  -0.4977820547 -1.2174860958  0.0103718876
H   0.0667160928 -2.1366708243  0.2641011449
14
Step 12  E=-436.5528361254  phi=64.741  theta=63.830
C  -1.8891812933  1.1684299004 -0.0498315488
C  -0.5123684539  1.2016630817 -0.0615709713
C   0.1824524722 -0.0175835493 -0.0443042642
C  -2.5939087837 -0.0178158001 -0.0230924585
H  -2.4410330938  2.0974787377 -0.0510050887
H   0.0442608822  2.1254389822 -0.0661369609
H  -3.6766471093 -0.0054454806  0.0055853530
N   1.6885514345  0.0284968795  0.0240862294
O   2.2132291692 -1.0333456023  0.1286786272
O   2.2270679284  1.0914142375 -0.0412534674
C  -1.8656490273 -1.2287272251  0.0004249407
H  -2.4277306156 -2.1459012350  0.0935088482
C  -0.5021872144 -1.2103950923  0.0174970977
H   0.0695205983 -2.1454635431  0.2117069436
14
Step 13  E=-436.5520508132  phi=64.643  theta=63.748
C  -1.8880420302  1.1683872127 -0.0502050941
C  -0.5159377954  1.1990944993 -0.0628981875
C   0.1801067078 -0.0215020890 -0.0445986861
C  -2.5900673441 -0.0174519663 -0.0241255738
H  -2.4415325917  2.0973160672 -0.0499734575
H   0.0426650524  2.1243080070 -0.0683637490
H  -3.6722176562 -0.0043418489  0.0064035423
N   1.6886194253  0.0273284614  0.0243672869
O   2.2136348416 -1.0280559979  0.1289035444
O   2.2252659880  1.0860463318 -0.0417007871
C  -1.8597565834 -1.2272952333  0.0002072859
H  -2.4220927592 -2.1452116364  0.0993564129
C  -0.5061383134 -1.2037584239  0.0248147612
H   0.0706925170 -2.1511067386  0.1574325656
14
Step 14  E=-436.5506641383  phi=64.571  theta=63.658
C  -1.8870878149  1.1685110170 -0.0506183269
C  -0.5191793771  1.1962096091 -0.0642880000
C   0.1777396843 -0.0247207390 -0.0448390179
C  -2.5859694245 -0.0173851873 -0.0251499268
H  -2.4419396078  2.0972539245 -0.0489768316
H   0.0405994088  2.1224891443 -0.0707451154
H  -3.6675516641 -0.0035135208  0.0070827326
N   1.6880125935  0.0261033345  0.0245991003
O   2.2143695316 -1.0230673730  0.1292108610
O   2.2235449282  1.0808606264 -0.0422112936
C  -1.8545179679 -1.2255088229  0.0001280048
H  -2.4153768841 -2.1445256856  0.1047275313
C  -0.5094936879 -1.1977398758  0.0322248786
H   0.0699907569 -2.1530837312  0.1020710507
14
Step 15  E=-436.5489375793  phi=64.528  theta=63.561
C  -1.8863567352  1.1688144060 -0.0510731327
C  -0.5220176278  1.1930444090 -0.0657331292
C   0.1753912862 -0.0271358352 -0.0450114728
C  -2.5816460832 -0.0176271783 -0.0261499006
H  -2.4422019689  2.0972379890 -0.0480454964
H   0.0379988162  2.1198167891 -0.0732781341
H  -3.6627299677 -0.0030192192  0.0075911517
N   1.6866596845  0.0248363473  0.0247703187
O   2.2154661268 -1.0184859374  0.1296102035
O   2.2219288964  1.0759462854 -0.0427903055
C  -1.8500771306 -1.2233742966  0.0002118365
H  -2.4075757801 -2.1437764964  0.1094594310
C  -0.5121312972 -1.1924761532  0.0396208666
H   0.0672970064 -2.1510960909  0.0464933602
14
Step 16  E=-436.5471143619  phi=64.517  theta=63.457
C  -1.8858779168  1.1693022268 -0.0515714628
C  -0.5243943766  1.1896392122 -0.0672259435
C   0.1731008722 -0.0286690889 -0.0451023114
C  -2.5771375731 -0.0181775009 -0.0271097787
H  -2.4422878213  2.0972392080 -0.0472113938
H   0.0348698138  2.1162321317 -0.0759597714
H  -3.6578300203 -0.0029145992  0.0078978684
N   1.6845094161  0.0235424253  0.0248707053
O   2.2169481545 -1.0144061058  0.1301099715
O   2.2204361614  1.0713842056 -0.0434429543
C  -1.8465454131 -1.2209035420  0.0004816535
H  -2.3987685903 -2.1429633693  0.1134024437
C  -0.5139556035 -1.1880706447  0.0468936840
H   0.0626324703 -2.1450964659 -0.0083971664
14
Step 17  E=-436.5453756346  phi=64.539  theta=63.345
C  -1.8856695067  1.1699705134 -0.0521153661
C  -0.5262717150  1.1860378319 -0.0687585103
C   0.1709058394 -0.0292713372 -0.0450978252
C  -2.5724937441 -0.0190229843 -0.0280139418
H  -2.4421899782  2.0972598338 -0.0465073128
H   0.0312967056  2.1117943781 -0.0787872252
H  -3.6529214081 -0.0032505143  0.0079731297
N   1.6815341628  0.0222353357  0.0248915558
O   2.2188278132 -1.0109063917  0.1307169361
O   2.2190780342  1.0672442191 -0.0441740330
C  -1.8439945474 -1.2181139934  0.0009581763
H  -2.3891228943 -2.1421555064  0.1164246408
C  -0.5149031416 -1.1845890461  0.0539363601
H   0.0561659872 -2.1353060455 -0.0617088029
14
Step 18  E=-436.5438171572  phi=64.595  theta=63.226
C  -1.8857374106  1.1708065645 -0.0527069757
C  -0.5276336068  1.1822877580 -0.0703227011
C   0.1688404583 -0.0289253480 -0.0449841009
C  -2.5677740592 -0.0201373860 -0.0288471039
H  -2.4419269381  2.0973343475 -0.0459661296
H   0.0274383797  2.1066777587 -0.0817582940
H  -3.6480634121 -0.0040711901  0.0077887081
N   1.6777330026  0.0209265961  0.0248260339
O   2.2211043433 -1.0080459322  0.1314358644
O   2.2178580214  1.0635826679 -0.0449878463
C  -1.8424520512 -1.2150295092  0.0016600201
H  -2.3788870681 -2.1414838133  0.1184144254
C  -0.5149462267 -1.1820571306  0.0606477032
H   0.0482122253 -2.1222149231 -0.1126166202
14
Step 19  E=-436.5424421619  phi=64.684  theta=63.099
C  -1.8860749343  1.1717896866 -0.0533484561
C  -0.5284860889  1.1784413030 -0.0719103381
C   0.1669350832 -0.0276474812 -0.0447467391
C  -2.5630471561 -0.0214813344 -0.0295945856
H  -2.4415404004  2.0975250711 -0.0456201323
H   0.0235158937  2.1011542938 -0.0848717137
H  -3.6433049100 -0.0054123379  0.0073182777
N   1.6731338398  0.0196247369  0.0246694305
O   2.2237629379 -1.0058620171  0.1322692187
O   2.2167712894  1.0604405420 -0.0458880791
C  -1.8418995840 -1.2116821765  0.0026039257
H  -2.3683734693 -2.1411209675  0.1192812246
C  -0.5140942550 -1.1804609554  0.0669356040
H   0.0392173570 -2.1065604511 -0.1604120316
14
Step 20  E=-436.5411822550  phi=64.805  theta=62.964
C  -1.8866633811  1.1728925730 -0.0540419281
C  -0.5288560173  1.1745575634 -0.0735133712
C   0.1652157806 -0.0254880776 -0.0443707000
C  -2.5583898995 -0.0230026256 -0.0302426109
H  -2.4410895328  2.0979129009 -0.0455004507
H   0.0197915599  2.0955631671 -0.0881273738
H  -3.6386865506 -0.0072992602  0.0065378326
N   1.6677943655  0.0183350444  0.0244193522
O   2.2267743752 -1.0043688892  0.1332169720
O   2.2158044969  1.0578423479 -0.0468777010
C  -1.8422744702 -1.2081148975  0.0038049973
H  -2.3579340692 -2.1412513093  0.1189546688
C  -0.5123923110 -1.1797495468  0.0727202250
H   0.0297352478 -2.0892860276 -0.2045328507
14
Step 21  E=-436.5399392159  phi=64.957  theta=62.821
C  -1.8874735402  1.1740832421 -0.0547893827
C  -0.5287884604  1.1707048983 -0.0751240712
C   0.1637043611 -0.0225304689 -0.0438403535
C  -2.5538858966 -0.0246369923 -0.0307786006
H  -2.4406426479  2.0985842025 -0.0456366383
H   0.0165412382  2.0902690699 -0.0915262977
H  -3.6342447638 -0.0097450085  0.0054261320
N   1.6618016615  0.0170598365  0.0240758214
O   2.2300954636 -1.0035579644  0.1342765627
O   2.2149360383  1.0557958104 -0.0479589163
C  -1.8434742008 -1.2043843301  0.0052768289
H  -2.3479314683 -2.1420340646  0.1173827519
C  -0.5099170744 -1.1798401373  0.0779360839
H   0.0203932093 -2.0714783724 -0.2445832238
14
Step 22  E=-436.5386252549  phi=65.135  theta=62.671
C  -1.8884678904  1.1753273933 -0.0555925885
C  -0.5283430109  1.1669634149 -0.0767352392
C   0.1624187184 -0.0188885487 -0.0431397569
C  -2.5496234697 -0.0263094988 -0.0311914417
H  -2.4402673492  2.0996155228 -0.0460564208
H   0.0140228924  2.0856141281 -0.0950702844
H  -3.6300168411 -0.0127486566  0.0039651538
N   1.6552703332  0.0157992409  0.0236412797
O   2.2336702790 -1.0033994804  0.1354429896
O   2.2141367145  1.0542924287 -0.0491331634
C  -1.8453633361 -1.2005634653  0.0070314178
H  -2.3387093731 -2.1435655533  0.1145299007
C  -0.5067703678 -1.1806260695  0.0825324938
H   0.0118431092 -2.0542813111 -0.2803377545
14
Step 23  E=-436.5371907702  phi=65.337  theta=62.513
C  -1.8896032575  1.1765909780 -0.0564530016
C  -0.5275894333  1.1634267379 -0.0783404300
C   0.1613733229 -0.0147029132 -0.0422531497
C  -2.5456930991 -0.0279367183 -0.0314717199
H  -2.4400205578  2.1010583330 -0.0467855894
H   0.0124458500  2.0818704728 -0.0987611717
H  -3.6260461475 -0.0162938053  0.0021405438
N   1.6483392048  0.0145523067  0.0231204973
O   2.2374321321 -1.0038453556  0.1367090369
O   2.2133708117  1.0533088309 -0.0504011596
C  -1.8477819595 -1.1967429640  0.0090787922
H  -2.3305670723 -2.1458476563  0.1103761322
C  -0.5030709568 -1.1819869042  0.0864724478
H   0.0047028691 -2.0387939565 -0.3117153424
14
Step 24  E=-436.5356373532  phi=65.558  theta=62.347
C  -1.8908336214  1.1778427266 -0.0573716838
C  -0.5266031385  1.1602022287 -0.0799341630
C   0.1605796643 -0.0101356306 -0.0411656096
C  -2.5421843780 -0.0294298209 -0.0316118836
H  -2.4399399729  2.1029262569 -0.0478480085
H   0.0119459111  2.0792020297 -0.1025997919
H  -3.6223864531 -0.0203474545 -0.0000579644
N   1.6411667603  0.0133181976  0.0225203956
O   2.2413061614 -1.0048328838  0.1380656185
O   2.2125975338  1.0528088066 -0.0517629867
C  -1.8505547720 -1.1930303860  0.0114263422
H  -2.3237417912 -2.1487698745  0.1049181365
C  -0.4989455484 -1.1837994711  0.0897298927
H  -0.0005012718 -2.0259658859 -0.3387276275
14
Step 25  E=-436.5340149633  phi=65.791  theta=62.173
C  -1.8921127797  1.1790563663 -0.0583492440
C  -0.5254609228  1.1574089104 -0.0815120803
C   0.1600464287 -0.0053637554 -0.0398637910
C  -2.5391825711 -0.0306986233 -0.0316063116
H  -2.4400384315  2.1051871320 -0.0492656893
H   0.0125709117  2.0776435691 -0.1065848045
H  -3.6191044951 -0.0248593697 -0.0026361819
N   1.6339256203  0.0120972343  0.0218497909
O   2.2452123287 -1.0062888544  0.1395022017
O   2.2117727038  1.0527458302 -0.0532182036
C  -1.8535000650 -1.1895467103  0.0140779255
H  -2.3184009714 -2.1521101204  0.0981724325
C  -0.4945202735 -1.1859482419  0.0922857886
H  -0.0033835343 -2.0165053781 -0.3614165022
14
Step 26  E=-436.5324120745  phi=66.032  theta=61.993
C  -1.8933966252  1.1802122984 -0.0593858078
C  -0.5242372737  1.1551727201 -0.0830710124
C   0.1597792476 -0.0005717974 -0.0383366577
C  -2.5367649286 -0.0316565139 -0.0314512626
H  -2.4403021551  2.1077615463 -0.0510588785
H   0.0142792973  2.0771017700 -0.1107116694
H  -3.6162800451 -0.0297620582 -0.0055951536
N   1.6267964151  0.0108916084  0.0211190749
O   2.2490685517 -1.0081336997  0.1410072646
O   2.2108506247  1.0530658595 -0.0547659727
C  -1.8564380521 -1.1864200631  0.0170328796
H  -2.3146440972 -2.1555552731  0.0901799098
C  -0.4899138868 -1.1883334067  0.0941241628
H  -0.0037304706 -2.0108192566 -0.3797948986
14
Step 27  E=-436.5309469469  phi=66.274  theta=61.807
C  -1.8946448915  1.1812985751 -0.0604810208
C  -0.5230013343  1.1536192522 -0.0846089147
C   0.1597799628  0.0040565259 -0.0365761397
C  -2.5349969767 -0.0322259817 -0.0311447031
H  -2.4406932444  2.1105284786 -0.0532461202
H   0.0169514078  2.0773781056 -0.1149720235
H  -3.6140030873 -0.0349714452 -0.0089308887
N   1.6199614403  0.0097056608  0.0203398515
O   2.2527937290 -1.0102853264  0.1425687488
O   2.2097859819  1.0537101959 -0.0564051853
C  -1.8591982819 -1.1837771863  0.0202851038
H  -2.3125116716 -2.1587379674  0.0810103898
C  -0.4852334131 -1.1908754674  0.0952295247
H  -0.0015089291 -2.0089968383 -0.3938059041
14
Step 28  E=-436.5297628745  phi=66.510  theta=61.616
C  -1.8958223272  1.1823111220 -0.0616340816
C  -0.5218144573  1.1528647238 -0.0861246613
C   0.1600454769  0.0083468125 -0.0345776615
C  -2.5339290646 -0.0323442989 -0.0306860216
H  -2.4411559916  2.1133373883 -0.0558442815
H   0.0204104806  2.0782083780 -0.1193536354
H  -3.6123680505 -0.0403882844 -0.0126341054
N   1.6135984550  0.0085456974  0.0195245601
O   2.2563104770 -1.0126623977  0.1441744768
O   2.2085356696  1.0546182275 -0.0581345776
C  -1.8616260039 -1.1817336851  0.0238223644
H  -2.3119979384 -2.1612826501  0.0707656548
C  -0.4805723110 -1.1935160726  0.0955864574
H   0.0031507937 -2.0108382609 -0.4033112541
14
Step 29  E=-436.5290184413  phi=66.734  theta=61.423
C  -1.8968993446  1.1832532644 -0.0628437974
C  -0.5207282228  1.1530062927 -0.0876177006
C   0.1605663923  0.0121422271 -0.0323405268
C  -2.5335934701 -0.0319687683 -0.0300756627
H  -2.4416259580  2.1160250438 -0.0588685517
H   0.0244488180  2.0793106127 -0.1238409789
H  -3.6114655209 -0.0459002766 -0.0166899509
N   1.6078749074  0.0074194122  0.0186861085
O   2.2595474625 -1.0151869573  0.1458125165
O   2.2070604490  1.0557299144 -0.0599528311
C  -1.8635874181 -1.1803843600  0.0276259264
H  -2.3130641405 -2.1628527394  0.0595798041
C  -0.4760106616 -1.1962157865  0.0951813659
H   0.0099904369 -2.0159163962 -0.4081099038
14
Step 30  E=-436.5288672901  phi=66.941  theta=61.228
C  -1.8978522507  1.1841346932 -0.0641086512
C  -0.5197828514  1.1541130039 -0.0890876097
C   0.1613257388  0.0153108703 -0.0298681655
C  -2.5340023590 -0.0310808838 -0.0293147305
H  -2.4420403369  2.1184345945 -0.0623324384
H   0.0288544450  2.0804324563 -0.1284163283
H  -3.6113722310 -0.0513848155 -0.0210776633
N   1.6029427828  0.0063350385  0.0178375410
O   2.2624412644 -1.0177863803  0.1474714789
O   2.2053263735  1.0569879261 -0.0618586539
C  -1.8649737323 -1.1797949330  0.0316705538
H  -2.3156499822 -2.1631915022  0.0476165421
C  -0.4716165722 -1.1989500469  0.0940056487
H   0.0186681596 -2.0236557256 -0.4079775085
14
Step 31  E=-436.5294273716  phi=67.127  theta=61.034
C  -1.8986631894  1.1849700550 -0.0654268720
C  -0.5190060621  1.1562185292 -0.0905336026
C   0.1622981423  0.0177516684 -0.0271682612
C  -2.5351468117 -0.0296888105 -0.0284046258
H  -2.4423480581  2.1204342280 -0.0662477844
H   0.0334345495  2.0813908317 -0.1330611931
H  -3.6121405648 -0.0567122351 -0.0257701507
N   1.5989341903  0.0053003652  0.0169917593
O   2.2649377547 -1.0203947041  0.1491407505
O   2.2033059510  1.0583393945 -0.0638508464
C  -1.8657039485 -1.1799962591  0.0359248617
H  -2.3196820046 -2.1621513202  0.0350637878
C  -0.4674479856 -1.2017045836  0.0920592649
H   0.0288026710 -2.0334120057 -0.4027135286
14
Step 32  E=-436.5307492860  phi=67.286  theta=60.843
C  -1.8993199196  1.1857773530 -0.0667964990
C  -0.5184124983  1.1593165891 -0.0919540594
C   0.1634497527  0.0193982820 -0.0242527793
C  -2.5369970057 -0.0278277752 -0.0273467781
H  -2.4425182576  2.1219329662 -0.0706248074
H   0.0380333022  2.0820990887 -0.1377578636
H  -3.6137890554 -0.0617494265 -0.0307334899
N   1.5959577403  0.0043217500  0.0161613086
O   2.2669930357 -1.0229534435  0.1508106628
O   2.2009790366  1.0597372823 -0.0659283527
C  -1.8657263503 -1.1809817438  0.0403519663
H  -2.3250782960 -2.1597082550  0.0221265771
C  -0.4635543122 -1.2044712177  0.0893538018
H   0.0400108658 -2.0445412157 -0.3921841975
14
Step 33  E=-436.5327960010  phi=67.419  theta=60.658
C  -1.8998155379  1.1865763306 -0.0682154376
C  -0.5180038332  1.1633595799 -0.0933461406
C   0.1647391163  0.0202207382 -0.0211379066
C  -2.5395034879 -0.0255582371 -0.0261425177
H  -2.4425460201  2.1228916228 -0.0754721491
H   0.0425426791  2.0825791651 -0.1424908194
H  -3.6162953983 -0.0663637077 -0.0359263901
N   1.5940957158  0.0034032424  0.0153582343
O   2.2685740015 -1.0254120212  0.1524726130
O   2.1983334697  1.0611413960 -0.0680903033
C  -1.8650187619 -1.1827082323  0.0449103514
H  -2.3317493040 -2.1559607829  0.0090195372
C  -0.4599775681 -1.2072445141  0.0859145000
H   0.0519359872 -2.0564519189 -0.3763540025
14
Step 34  E=-436.5354410598  phi=67.522  theta=60.479
C  -1.9001482205  1.1873869828 -0.0696815054
C  -0.5177695558  1.1682605338 -0.0947055477
C   0.1661190052  0.0202247527 -0.0178439100
C  -2.5425993266 -0.0229620392 -0.0247931104
H  -2.4424547400  2.1233276858 -0.0807968874
H   0.0469056232  2.0829581077 -0.1472477560
H  -3.6195933119 -0.0704268534 -0.0412997111
N   1.5934020217  0.0025459027  0.0145940055
O   2.2696586084 -1.0277279411  0.1541191473
O   2.1953654771  1.0625190880 -0.0703360513
C  -1.8635877780 -1.1851001755  0.0495548575
H  -2.3395946812 -2.1511132853 -0.0040397626
C  -0.4567529067 -1.2100194415  0.0817810599
H   0.0642658418 -2.0686394918 -0.3553028793
14
Step 35  E=-436.5384857492  phi=67.598  theta=60.308
C  -1.9003210372  1.1882283038 -0.0711924709
C  -0.5176883023  1.1738981684 -0.0960264659
C   0.1675390188  0.0194489776 -0.0143949165
C  -2.5462028510 -0.0201370036 -0.0232999465
H  -2.4422947754  2.1233134832 -0.0866044496
H   0.0511113026  2.0834495446 -0.1520199896
H  -3.6235740321 -0.0738192195 -0.0467961680
N   1.5939008926  0.0017473711  0.0138794947
O   2.2702359326 -1.0298668115  0.1557440216
O   2.1920798640  1.0638456950 -0.0726652075
C  -1.8614672469 -1.1880564581  0.0542376843
H  -2.3484963902 -2.1454465495 -0.0168355459
C  -0.4539085282 -1.2127900347  0.0770072907
H   0.0767417813 -2.0807027842 -0.3292294148
14
Step 36  E=-436.5416895562  phi=67.648  theta=60.148
C  -1.9003418473  1.1891173401 -0.0727460875
C  -0.5177294831  1.1801244586 -0.0973017102
C   0.1689486171  0.0179606272 -0.0108186178
C  -2.5502206619 -0.0171906105 -0.0216648478
H  -2.4421384364  2.1229676737 -0.0928983450
H   0.0551827647  2.0843219296 -0.1568020320
H  -3.6280925134 -0.0764338876 -0.0523503699
N   1.5955863451  0.0010017310  0.0132249970
O   2.2703060687 -1.0318023070  0.1573422527
O   2.1884900168  1.0651047502 -0.0750776745
C  -1.8587162874 -1.1914589437  0.0589093130
H  -2.3583088919 -2.1392793769 -0.0291561099
C  -0.4514650136 -1.2155490315  0.0716597846
H   0.0891590088 -2.0923445226 -0.2984421624
14
Step 37  E=-436.5448020141  phi=67.674  theta=59.999
C  -1.9002232562  1.1900685892 -0.0743401303
C  -0.5178549410  1.1867739038 -0.0985230636
C   0.1703001855  0.0158500353 -0.0071459084
C  -2.5545506536 -0.0142334488 -0.0198904397
H  -2.4420717841  2.1224409032 -0.0996796361
H   0.0591582490  2.0858570787 -0.1615902329
H  -3.6329777188 -0.0781807192 -0.0578893215
N   1.5984223772  0.0002996800  0.0126402696
O   2.2698799229 -1.0335161219  0.1589101747
O   2.1846177357  1.0662879946 -0.0775736830
C  -1.8554170175 -1.1951815689  0.0635192883
H  -2.3688481989 -2.1329273691 -0.0407937088
C  -0.4494341706 -1.2182884735  0.0658158833
H   0.1013580046 -2.1033573337 -0.2633424705
14
Step 38  E=-436.5475900393  phi=67.681  theta=59.861
C  -1.8999825722  1.1910937325 -0.0759724412
C  -0.5180204886  1.1936734913 -0.0996817674
C   0.1715517360  0.0132247158 -0.0034104689
C  -2.5590848598 -0.0113730720 -0.0179805277
H  -2.4421840463  2.1218970841 -0.1069460813
H   0.0630686026  2.0883043188 -0.1663805491
H  -3.6380456439 -0.0789901488 -0.0633334619
N   1.6023439156 -0.0003709760  0.0121345677
O   2.2689789139 -1.0349979448  0.1604454958
O   2.1804929002  1.0673951953 -0.0801538275
C  -1.8516720126 -1.1990987662  0.0680168770
H  -2.3798825124 -2.1266661350 -0.0515426564
C  -0.4478175611 -1.2210011829  0.0595612597
H   0.1132072061 -2.1135979533 -0.2244033084
14
Step 39  E=-436.5498550375  phi=67.671  theta=59.736
C  -1.8996416686  1.1922016405 -0.0776409876
C  -0.5181773370  1.2006522596 -0.1007690997
C   0.1726689117  0.0102034397  0.0003516941
C  -2.5637120369 -0.0087087524 -0.0159404242
H  -2.4425559269  2.1214925882 -0.1146909248
H   0.0669146644  2.0918374003 -0.1711657549
H  -3.6431134043 -0.0788164964 -0.0685982261
N   1.6072585090 -0.0010244967  0.0117166535
O   2.2676345453 -1.0362454872  0.1619473507
O   2.1761529462  1.0684337682 -0.0828190991
C  -1.8476013426 -1.2030921763  0.0723516884
H  -2.3911278092 -2.1207059735 -0.0611968132
C  -0.4466049119 -1.2236828108  0.0529875232
H   0.1245806814 -2.1229529358 -0.1821488209
14
Step 40  E=-436.5514425800  phi=67.651  theta=59.623
C  -1.8992266291  1.1933985299 -0.0793439323
C  -0.5182736063  1.2075494186 -0.1017769606
C   0.1736261118  0.0069106992  0.0041027526
C  -2.5683199917 -0.0063274194 -0.0137771931
H  -2.4432483557  2.1213561046 -0.1229013832
H   0.0706493620  2.0965217853 -0.1759326328
H  -3.6480125645 -0.0776405632 -0.0735960223
N   1.6130487552 -0.0016760868  0.0113947614
O   2.2658879099 -1.0372644981  0.1634163650
O   2.1716421301  1.0694181959 -0.0855709121
C  -1.8433389552 -1.2070550327  0.0764743758
H  -2.4022514642 -2.1151827105 -0.0695481016
C  -0.4457726131 -1.2263338981  0.0461902767
H   0.1353372887 -2.1313008119 -0.1371384327
14
Step 41  E=-436.5522482717  phi=67.623  theta=59.523
C  -1.8987670475  1.1946881161 -0.0810797040
C  -0.5182561687  1.2142202384 -0.1026983932
C   0.1744067112  0.0034717713  0.0078036382
C  -2.5727977339 -0.0043008672 -0.0114998034
H  -2.4442933420  2.1215720952 -0.1315569729
H   0.0741690621  2.1022985488 -0.1806598014
H  -3.6526000753 -0.0754712691 -0.0782384497
N   1.6195754169 -0.0023404991  0.0111764935
O   2.2637890443 -1.0380687395  0.1648547107
O   2.1670105693  1.0703692091 -0.0884111140
C  -1.8390282220 -1.2108941176  0.0803375202
H  -2.4128855096 -2.1101653578 -0.0763877506
C  -0.4452829816 -1.2289613188  0.0392678554
H   0.1453037943 -2.1384805205 -0.0899583875
14
Step 42  E=-436.5522237774  phi=67.592  theta=59.436
C  -1.8982948877  1.1960716120 -0.0828470463
C  -0.5180730112  1.2205393537 -0.1035279868
C   0.1750025022  0.0000084529  0.0114147349
C  -2.5770375444 -0.0026841655 -0.0091191977
H  -2.4456883979  2.1221703945 -0.1406279138
H   0.0773169547  2.1089878124 -0.1853167549
H  -3.6567655929 -0.0723461598 -0.0824385431
N   1.6266811678 -0.0030304035  0.0110686370
O   2.2613960924 -1.0386798784  0.1662661273
O   2.1623130771  1.0713126885 -0.0913419625
C  -1.8348166348 -1.2145296723  0.0838967277
H  -2.4226488684 -2.1056771498 -0.0815112447
C  -0.4450850186 -1.2315784765  0.0323206350
H   0.1542632949 -2.1442776139 -0.0412220496
14
Step 43  E=-436.5513849315  phi=67.561  theta=59.361
C  -1.8978428875  1.1975474637 -0.0846450298
C  -0.5176761243  1.2264016119 -0.1042621234
C   0.1754125959 -0.0033645500  0.0148966906
C  -2.5809370214 -0.0015151312 -0.0066482913
H  -2.4473955046  2.1231235759 -0.1500738977
H   0.0798983347  2.1163105266 -0.1898644694
H  -3.6604344627 -0.0683307108 -0.0861128208
N   1.6341948715 -0.0037546451  0.0110769096
O   2.2587742335 -1.0391271994  0.1676558908
O   2.1576078113  1.0722782747 -0.0943660598