14
Step 0  E=-436.5201768984  phi=145.037  theta=73.917
C  -1.9017810530  1.1727101191 -0.0477790209
C  -0.4769985340  1.2089957069 -0.0525975157
C   0.1989922739  0.0320249794 -0.0408242469
C  -2.6171382327 -0.0300276190 -0.0148724540
H  -2.4415512386  2.1135905022 -0.0591508673
H   0.0614181622  2.1484978144 -0.0520070663
H  -3.6985965651 -0.0204440200 -0.0041052877
N   1.6711379145  0.0356204211  0.0208194603
O   2.2179172938 -1.0816160810  0.1287558548
O   2.2435537937  1.1378282301 -0.0390839442
C  -1.9265057851 -1.2275013497  0.0051089376
H  -2.4537819915 -2.1750409642  0.0390344516
C  -0.4586920771 -1.2762486666 -0.0365644282
H   0.0226613253 -2.0242750811  0.5966713920
14
Step 1  E=-436.5219147049  phi=144.989  theta=73.917
C  -1.9013570832  1.1725586785 -0.0477976069
C  -0.4778759102  1.2093045515 -0.0527323551
C   0.1985772078  0.0304352175 -0.0408555096
C  -2.6167055104 -0.0296861773 -0.0151002580
H  -2.4404086743  2.1125154264 -0.0590330796
H   0.0609719053  2.1480974142 -0.0522009847
H  -3.6975656379 -0.0206608575 -0.0039601721
N   1.6718810817  0.0354817894  0.0208589868
O   2.2174949471 -1.0805698361  0.1287183175
O   2.2432636379  1.1369487262 -0.0390387832
C  -1.9251464046 -1.2277975460  0.0049156371
H  -2.4538391541 -2.1745651302  0.0401638771
C  -0.4597553406 -1.2745828696 -0.0354521157
H   0.0236238453 -2.0270925969  0.5887757918
14
Step 2  E=-436.5246700061  phi=144.911  theta=73.918
C  -1.9006553539  1.1723045664 -0.0478292489
C  -0.4793122540  1.2097870985 -0.0529560113
C   0.1978828206  0.0278378133 -0.0409060602
C  -2.6159712159 -0.0291374355 -0.0154779523
H  -2.4385983039  2.1108650674 -0.0588365299
H   0.0602517196  2.1474793895 -0.0525242362
H  -3.6959312864 -0.0210166600 -0.0037228580
N   1.6730895273  0.0352509451  0.0209234777
O   2.2168039399 -1.0788464870  0.1286576618
O   2.2427872858  1.1354976367 -0.0389644563
C  -1.9229156708 -1.2282713870  0.0045979405
H  -2.4538886649 -2.1737842789  0.0420234985
C  -0.4615088742 -1.2718308748 -0.0336136836
H   0.0252545003 -2.0318076627  0.5757309235
14
Step 3  E=-436.5282463888  phi=144.806  theta=73.920
C  -1.8996839562  1.1719463654 -0.0478749366
C  -0.4812692742  1.2103975912 -0.0532668464
C   0.1969062009  0.0243095575 -0.0409735102
C  -2.6149174691 -0.0284108462 -0.0160025362
H  -2.4362504032  2.1088337567 -0.0585609952
H   0.0592890838  2.1467095795 -0.0529768997
H  -3.6938068147 -0.0215035489 -0.0034002266
N   1.6747185781  0.0349284948  0.0210107989
O   2.2158635151 -1.0764766822  0.1285767524
O   2.2421354885  1.1334970348 -0.0388623662
C  -1.9198655592 -1.2288941356  0.0041625692
H  -2.4538639684 -2.1727164057  0.0445789758
C  -0.4639236907 -1.2680312022 -0.0310709050
H   0.0275789428 -2.0384278251  0.5576915816
14
Step 4  E=-436.5323945144  phi=144.677  theta=73.921
C  -1.8984556460  1.1714842757 -0.0479360387
C  -0.4836945950  1.2110767607 -0.0536625254
C   0.1956451606  0.0199550535 -0.0410544137
C  -2.6135225670 -0.0275456491 -0.0166697504
H  -2.4335270478  2.1066593502 -0.0582064253
H   0.0581208356  2.1458650470 -0.0535590755
H  -3.6913273808 -0.0221114282 -0.0030020473
N   1.6767068617  0.0345158525  0.0211178617
O   2.2147003646 -1.0735034095  0.1284796061
O   2.2413230685  1.1309777002 -0.0387344561
C  -1.9160680603 -1.2296274628  0.0036189454
H  -2.4536761194 -2.1713862409  0.0477818974
C  -0.4669570807 -1.2632416282 -0.0278518239
H   0.0306060962 -2.0469225391  0.5348444207
14
Step 5  E=-436.5368296654  phi=144.529  theta=73.922
C  -1.8969890374  1.1709220018 -0.0480142844
C  -0.4865229278  1.2117560054 -0.0541399866
C   0.1940998577  0.0149040395 -0.0411441991
C  -2.6117638916 -0.0265890572 -0.0174740324
H  -2.4306039683  2.1045927055 -0.0577732040
H   0.0567831791  2.1450215400 -0.0542708675
H  -3.6886300596 -0.0228287293 -0.0025411261
N   1.6789775142  0.0340157558  0.0212405373
O   2.2133483339 -1.0699819887  0.1283713899
O   2.2403686730  1.1279789538 -0.0385831878
C  -1.9116143390 -1.2304251817  0.0029791670
H  -2.4532181321 -2.1698251097  0.0515696382
C  -0.4705508400 -1.2575424804 -0.0239889901
H   0.0343046119 -2.0571863066  0.5073869425
14
Step 6  E=-436.5412485914  phi=144.366  theta=73.924
C  -1.8953097839  1.1702687047 -0.0481117369
C  -0.4896775273  1.2123619838 -0.0546954196
C   0.1922745398  0.0093081931 -0.0412371182
C  -2.6096210722 -0.0255941462 -0.0184084793
H  -2.4276506461  2.1028642806 -0.0572624864
H   0.0553056770  2.1442407748 -0.0551123485
H  -3.6858331183 -0.0236431574 -0.0020334980
N   1.6814397811  0.0334328493  0.0213735719
O   2.2118479736 -1.0659799314  0.1282584077
O   2.2392944341  1.1245483873 -0.0384115108
C  -1.9066135379 -1.2312352722  0.0022579276
H  -2.4523706605 -2.1680710919  0.0558654344
C  -0.4746295940 -1.2510398677 -0.0195181347
H   0.0385792216 -2.0689995783  0.4755129366
14
Step 7  E=-436.5453471451  phi=144.196  theta=73.925
C  -1.8934514733  1.1695406413 -0.0482307569
C  -0.4930719464  1.2128211885 -0.0553242592
C   0.1901792162  0.0033374854 -0.0413262319
C  -2.6070790348 -0.0246175636 -0.0194648304
H  -2.4248114205  2.1016526287 -0.0566766178
H   0.0537063188  2.1435595978 -0.0560835031
H  -3.6830177522 -0.0245423667 -0.0014986347
N   1.6839910359  0.0327742735  0.0215105189
O   2.2102458881 -1.0615765772  0.1281480647
O   2.2381255252  1.1207414485 -0.0382228232
C  -1.9011911158 -1.2320020885  0.0014723591
H  -2.4510089557 -2.1661695799  0.0605788308
C  -0.4790997910 -1.2438679434 -0.0144778556
H   0.0432526316 -2.0819968206  0.4394103227
14
Step 8  E=-436.5488429476  phi=144.022  theta=73.925
C  -1.8914559528  1.1687620833 -0.0483739530
C  -0.4966121211  1.2130641186 -0.0560212055
C   0.1878310584 -0.0028239072 -0.0414034406
C  -2.6041305819 -0.0237171554 -0.0206334831
H  -2.4221905970  2.1010599497 -0.0560196245
H   0.0519886697  2.1429828209 -0.0571841503
H  -3.6802153755 -0.0255145335 -0.0009596152
N   1.6865192342  0.0320501757  0.0216437085
O   2.2085938327 -1.0568623943  0.1280487989
O   2.2368896044  1.1166208377 -0.0380209232
C  -1.8954865726 -1.2326686482  0.0006417774
H  -2.4490109024 -2.1641741842  0.0656066333
C  -0.4838500436 -1.2361892122 -0.0089106161
H   0.0480573809 -2.0956525220  0.3992742596
14
Step 9  E=-436.5515019237  phi=143.852  theta=73.925
C  -1.8893728410  1.1679651750 -0.0485441185
C  -0.5001988209  1.2130287627 -0.0567802748
C   0.1852553546 -0.0089821783 -0.0414595629
C  -2.6007782206 -0.0229495895 -0.0219035570
H  -2.4198441262  2.1010991500 -0.0552977488
H   0.0501418562  2.1424810252 -0.0584138449
H  -3.6774028382 -0.0265488493 -0.0004431783
N   1.6889058070  0.0312740410  0.0217642767
O   2.2069475265 -1.0519378193  0.1279699609
O   2.2356161426  1.1122556769 -0.0378099509
C  -1.8896504035 -1.2331789240 -0.0002126777
H  -2.4462658012 -2.1621478075  0.0708344588
C  -0.4887533245 -1.2281919744 -0.0028647799
H   0.0526413063 -2.1092915340  0.3553371565
14
Step 10  E=-436.5531702101  phi=143.692  theta=73.923
C  -1.8872580914  1.1671885514 -0.0487441548
C  -0.5037304758  1.2126632423 -0.0575948847
C   0.1824858813 -0.0149390049 -0.0414844455
C  -2.5970350732 -0.0223680261 -0.0232630135
H  -2.4177792421  2.1016948150 -0.0545199625
H   0.0481436315  2.1419937157 -0.0597717653
H  -3.6745065590 -0.0276359878  0.0000204195
N   1.6910289758  0.0304627238  0.0218622719
O   2.2053651670 -1.0469115114  0.1279216279
O   2.2343356430  1.1077204159 -0.0375943225
C  -1.8838401642 -1.2334800819 -0.0010684826
H  -2.4426833766 -2.1601635311  0.0761388504
C  -0.4936710788 -1.2200844438  0.0036029132
H   0.0565912583 -2.1221260066  0.3079103104
14
Step 11  E=-436.5538042677  phi=143.546  theta=73.920
C  -1.8851716269  1.1664747824 -0.0489769861
C  -0.5071063521  1.2119275983 -0.0584579593
C   0.1795646171 -0.0204972073 -0.0414670629
C  -2.5929248683 -0.0220198760 -0.0246988264
H  -2.4159619043  2.1026978220 -0.0536983912
H   0.0459662699  2.1414373734 -0.0612566027
H  -3.6714150543 -0.0287685919  0.0003978007
N   1.6927674498  0.0296360775  0.0219268507
O   2.2039056293 -1.0418979318  0.1279143497
O   2.2330787617  1.1030934553 -0.0373786572
C  -1.8782156234 -1.2335246078 -0.0019021938
H  -2.4382023598 -2.1583048863  0.0813897467
C  -0.4984589412 -1.2120860136  0.0104248568
H   0.0594733961 -2.1333184321  0.2574176885
14
Step 12  E=-436.5534788805  phi=143.422  theta=73.915
C  -1.8831742315  1.1658669600 -0.0492454818
C  -0.5102299983  1.2107948308 -0.0593620333
C   0.1765407456 -0.0254668973 -0.0413955996
C  -2.5884811739 -0.0219446825 -0.0261971929
H  -2.4143303331  2.1039106145 -0.0528485709
H   0.0435844764  2.1407170830 -0.0628664932
H  -3.6679978459 -0.0299417750  0.0006531416
N   1.6940044216  0.0288161164  0.0219465716
O   2.2026263569 -1.0370142292  0.1279588258
O   2.2318753559  1.0984554769 -0.0371676993
C  -1.8729330776 -1.2332722448 -0.0026898918
H  -2.4327978913 -2.1566650016  0.0864530938
C  -0.5029735095 -1.2044167138  0.0175210060
H   0.0608787971 -2.1420583655  0.2044128438
14
Step 13  E=-436.5523721968  phi=143.322  theta=73.907
C  -1.8813240121  1.1654049018 -0.0495524072
C  -0.5130128153  1.2092513748 -0.0602993294
C   0.1734689447 -0.0296720121 -0.0412575713
C  -2.5837461400 -0.0221721620 -0.0277437669
H  -2.4128119527  2.1051184468 -0.0519894606
H   0.0409841657  2.1397399140 -0.0645990340
H  -3.6641277701 -0.0311535952  0.0007491050
N   1.6946317640  0.0280256820  0.0219098048
O   2.2015810086 -1.0323764540  0.1280655152
O   2.2307534827  1.0938875082 -0.0369662378
C  -1.8681390018 -1.2326917328 -0.0034076039
H  -2.4264869635 -2.1553441153  0.0911935247
C  -0.5070794843 -1.1972857694  0.0247993118
H   0.0604674325 -2.1476388345  0.1495866692
14
Step 14  E=-436.5507382629  phi=143.253  theta=73.897
C  -1.8796727895  1.1651214597 -0.0499004277
C  -0.5153775787  1.2072972094 -0.0612617713
C   0.1704071104 -0.0329570594 -0.0410400540
C  -2.5787690099 -0.0227204363 -0.0293238716
H  -2.4113407828  2.1061214193 -0.0511431815
H   0.0381708167  2.1384280691 -0.0664513856
H  -3.6597033920 -0.0324054102  0.0006479424
N   1.6945543023  0.0272866613  0.0218052533
O   2.2008169542 -1.0280952205  0.1282442023
O   2.2297383762  1.0894687677 -0.0367790284
C  -1.8639633700 -1.2317623908 -0.0040317302
H  -2.4193311777 -2.1544450624  0.0954769905
C  -0.5106564750 -1.1908803888  0.0321578084
H   0.0580078267 -2.1495284219  0.0937517336
14
Step 15  E=-436.5488586254  phi=143.216  theta=73.883
C  -1.8782627730  1.1650393642 -0.0502921655
C  -0.5172617008  1.2049457921 -0.0622409495
C   0.1674137791 -0.0351937374 -0.0407299969
C  -2.5736046393 -0.0235945073 -0.0309226727
H  -2.4098726720  2.1067627337 -0.0503345017
H   0.0351761406  2.1367300600 -0.0684204058
H  -3.6546684984 -0.0337019824  0.0003126525
N   1.6936939874  0.0266179405  0.0216225489
O   2.2003727620 -1.0242710799  0.1285035504
O   2.2288514363  1.0852743656 -0.0366107179
C  -1.8605131507 -1.2304755888 -0.0045394663
H  -2.4114362970 -2.1540665205  0.0991732170
C  -0.5136047850 -1.1853559226  0.0394878577
H   0.0534068626 -2.1474275707  0.0377970449
14
Step 16  E=-436.5469821532  phi=143.216  theta=73.865
C  -1.8771238346  1.1651689334 -0.0507302688
C  -0.5186200133  1.2022239788 -0.0632281226
C   0.1645455315 -0.0362870142 -0.0403144582
C  -2.5683122322 -0.0247850364 -0.0325253539
H  -2.4083964463  2.1069497727 -0.0495901197
H   0.0320620430  2.1346285546 -0.0705027515
H  -3.6490262723 -0.0350512450 -0.0002919206
N   1.6919937725  0.0260333517  0.0213528645
O   2.2002758683 -1.0209899610  0.1288506605
O   2.2281092626  1.0813729578 -0.0364657705
C  -1.8578665283 -1.2288361296 -0.0049091266
H  -2.4029483850 -2.1542940781  0.1021577957
C  -0.5158498175 -1.1808279830  0.0466787277
H   0.0467276368 -2.1413021095 -0.0173600442
14
Step 17  E=-436.5452820062  phi=143.252  theta=73.842
C  -1.8762716430  1.1655068637 -0.0512174444
C  -0.5194268556  1.1991720613 -0.0642143105
C   0.1618546606 -0.0361802652 -0.0397805602
C  -2.5629544493 -0.0262674964 -0.0341173222
H  -2.4069397406  2.1066658567 -0.0489378696
H   0.0289212286  2.1321439482 -0.0726949285
H  -3.6428465016 -0.0364636844 -0.0011981887
N   1.6894209979  0.0255399335  0.0209894642
O   2.2005405956 -1.0183191105  0.1292906512
O   2.2275227705  1.0778244756 -0.0363483924
C  -1.8560683561 -1.2268635163 -0.0051202239
H  -2.3940468544 -2.1551897269  0.1043135423
C  -0.5173451674 -1.1773669254  0.0536223626
H   0.0381952611 -2.1314008375 -0.0708224537
14
Step 18  E=-436.5438323645  phi=143.327  theta=73.815
C  -1.8757068482  1.1660362191 -0.0517564338
C  -0.5196772948  1.1958439927 -0.0651904769
C   0.1593873559 -0.0348590777 -0.0391151702
C  -2.5575969500 -0.0280017837 -0.0356844331
H  -2.4055689067  2.1059716286 -0.0484059715
H   0.0258742137  2.1293332671 -0.0749932925
H  -3.6362649472 -0.0379513210 -0.0024352399
N   1.6859700563  0.0251368395  0.0205281406
O   2.2011666910 -1.0163039608  0.1298262925
O   2.2270964339  1.0746780666 -0.0362624598
C  -1.8551272720 -1.2245930335 -0.0051533216
H  -2.3849354100 -2.1567809781  0.1055311986
C  -0.5180741446 -1.1749950892  0.0602171836
H   0.0281903456 -2.1182534237 -0.1217715833
14
Step 19  E=-436.5426045693  phi=143.440  theta=73.782
C  -1.8754154254  1.1667276595 -0.0523499457
C  -0.5193873676  1.1923077615 -0.0661477731
C   0.1571826031 -0.0323533940 -0.0383045365
C  -2.5523083153 -0.0299323962 -0.0372132189
H  -2.4043829053  2.1049958803 -0.0480223855
H   0.0230629107  2.1262845364 -0.0773940134
H  -3.6294747965 -0.0395263188 -0.0040286167
N   1.6816641331  0.0248151219  0.0199675346
O   2.2021385956 -1.0149662619  0.1304577511
O   2.2268277055  1.0719703953 -0.0362114602
C  -1.8550147660 -1.2220765180 -0.0049898568
H  -2.3758320950 -2.1590511512  0.1057101503
C  -0.5180493714 -1.1736871009  0.0663714672
H   0.0172317391 -2.1026429383 -0.1695156478
14
Step 20  E=-436.5414947152  phi=143.590  theta=73.743
C  -1.8753701857  1.1675418571 -0.0530005668
C  -0.5185933198  1.1886457584 -0.0670778116
C   0.1552718991 -0.0287377739 -0.0373341031
C  -2.5471602097 -0.0319893010 -0.0386911036
H  -2.4035016122  2.1039164881 -0.0478143200
H   0.0206413666  2.1231073192 -0.0798930128
H  -3.6227109050 -0.0411993049 -0.0060004193
N   1.6765558475  0.0245584729  0.0193093367
O   2.2034255504 -1.0143036902  0.1311824801
O   2.2267066621  1.0697244491 -0.0361984549
C  -1.8556663017 -1.2193825872 -0.0046121282
H  -2.3669595998 -2.1619326688  0.1047597408
C  -0.5173105726 -1.1733734632  0.0720064323
H   0.0059478175 -2.0855576034 -0.2135181201
14
Step 21  E=-436.5403730949  phi=143.775  theta=73.697
C  -1.8755333338  1.1684329488 -0.0537106598
C  -0.5173498832  1.1849548865 -0.0679729362
C   0.1536797185 -0.0241296385 -0.0361885949
C  -2.5422275662 -0.0340896227 -0.0401065861
H  -2.4030496414  2.1029332923 -0.0478079531
H   0.0187645957  2.1199207174 -0.0824858760
H  -3.6162284561 -0.0429775142 -0.0083696523
N   1.6707266637  0.0243448598  0.0185583462
O   2.2049825371 -1.0142910015  0.1319952710
O   2.2267159306  1.0679489587 -0.0362260690
C  -1.8569844380 -1.2165960007 -0.0040035378
H  -2.3585368816 -2.1653051889  0.1026014172
C  -0.5159206708 -1.1739475380  0.0770580097
H  -0.0049667140 -2.0681196852 -0.2534153172
14
Step 22  E=-436.5391316633  phi=143.991  theta=73.644
C  -1.8758598280  1.1693527245 -0.0544822550
C  -0.5157276947  1.1813460851 -0.0688264776
C   0.1524245034 -0.0186854666 -0.0348523903
C  -2.5375885095 -0.0361402730 -0.0414493907
H  -2.4031375300  2.1022360636 -0.0480283769
H   0.0175766977  2.1168405647 -0.0851677362
H  -3.6102784367 -0.0448629106 -0.0111526629
N   1.6642850080  0.0241488302  0.0177223874
O   2.2067519782 -1.0148825993  0.1328884568
O   2.2268309433  1.0666385001 -0.0362965068
C  -1.8588437352 -1.2138158235 -0.0031491148
H  -2.3507727665 -2.1689998205  0.0991717981
C  -0.5139602121 -1.1752757424  0.0814768468
H  -0.0148077344 -2.0514886761 -0.2890143309
14
Step 23  E=-436.5377169127  phi=144.235  theta=73.584
C  -1.8763011707  1.1702551019 -0.0553169409
C  -0.5138099934  1.1779428940 -0.0696329765
C   0.1515198538 -0.0125950593 -0.0333101423
C  -2.5333237029 -0.0380416005 -0.0427105920
H  -2.4038429706  2.1019722112 -0.0484997241
H   0.0171996639  2.1139678122 -0.0879331288
H  -3.6050830920 -0.0468504599 -0.0143634719
N   1.6573631592  0.0239441050  0.0168120982
O   2.2086661161 -1.0160161618  0.1338522525
O   2.2270205512  1.0657742909 -0.0364115939
C  -1.8610971161 -1.2111521507 -0.0020362892
H  -2.3438616772 -2.1728097924  0.0944265295
C  -0.5115205075 -1.1772100923  0.0852266932
H  -0.0229250324 -2.0367498816 -0.3202577646
14
Step 24  E=-436.5361439979  phi=144.500  theta=73.515
C  -1.8768091821  1.1711003250 -0.0562157649
C  -0.5116887335  1.1748786950 -0.0703883464
C   0.1509755151 -0.0060740552 -0.0315475577
C  -2.5295148447 -0.0396920510 -0.0438827023
H  -2.4051952122  2.1022196881 -0.0492454065
H   0.0177241537  2.1113799649 -0.0907758271
H  -3.6008147391 -0.0489267037 -0.0180138133
N   1.6501130827  0.0237060552  0.0158406088
O   2.2106498964 -1.0176168976  0.1348752021
O   2.2272479968  1.0653256315 -0.0365728380
C  -1.8635832723 -1.2087213034 -0.0006558223
H  -2.3379810880 -2.1765067678  0.0883444125
C  -0.5086963735 -1.1796014146  0.0882811738
H  -0.0287828038 -2.0248054265 -0.3471641993
14
Step 25  E=-436.5344894262  phi=144.780  theta=73.439
C  -1.8773393074  1.1718583224 -0.0571791602
C  -0.5094602422  1.1722923812 -0.0710899392
C   0.1507977858  0.0006450569 -0.0295522166
C  -2.5262421559 -0.0409937090 -0.0449597025
H  -2.4071656562  2.1029703944 -0.0502883652
H   0.0192032378  2.1091270079 -0.0936886823
H  -3.5975810560 -0.0510687433 -0.0221127516
N   1.6427014495  0.0234137353  0.0148231303
O   2.2126240961 -1.0196020119  0.1359446804
O   2.2274722077  1.0652518690 -0.0367815009
C  -1.8661346706 -1.2066396314  0.0009972405
H  -2.3332899923 -2.1798609697  0.0809311017
C  -0.5055795877 -1.1823111758  0.0906195454
H  -0.0320083171 -2.0162857906 -0.3697620752
14
Step 26  E=-436.5328725042  phi=145.070  theta=73.354
C  -1.8778531068  1.1725108013 -0.0582069095
C  -0.5072205683  1.1703224289 -0.0717364943
C   0.1509891071  0.0073230747 -0.0273143352
C  -2.5235808839 -0.0418584195 -0.0459370051
H  -2.4096667388  2.1041277176 -0.0516512342
H   0.0216495850  2.1072324493 -0.0966634984
H  -3.5954189660 -0.0532437179 -0.0266658349
N   1.6353041351  0.0230512605  0.0137764837
O   2.2145084544 -1.0218850027  0.1370474070
O   2.2276493285  1.0655047215 -0.0370386712
C  -1.8685856931 -1.2050163236  0.0029227159
H  -2.3299275652 -2.1826625432  0.0722217030
C  -0.5022540256 -1.1852200774  0.0922228695
H  -0.0324193210 -2.0115002384 -0.3880325266
14
Step 27  E=-436.5314385247  phi=145.361  theta=73.261
C  -1.8783197457  1.1730518817 -0.0592981536
C  -0.5050606884  1.1690996129 -0.0723279529
C   0.1515467948  0.0137249063 -0.0248274044
C  -2.5215970597 -0.0422140307 -0.0468113390
H  -2.4125596159  2.1055190327 -0.0533563566
H   0.0250360210  2.1056991111 -0.0996909730
H  -3.5942977121 -0.0554088378 -0.0316738587
N   1.6281005016  0.0226084360  0.0127185973
O   2.2162246134 -1.0243794826  0.1381699350
O   2.2277343940  1.0660307833 -0.0373453316
C  -1.8707804407 -1.2039458773  0.0051146302
H  -2.3280112795 -2.1847412369  0.0622817330
C  -0.4987929908 -1.1882323629  0.0930719940
H  -0.0300242859 -2.0104363875 -0.4018757763
14
Step 28  E=-436.5303470035  phi=145.647  theta=73.160
C  -1.8787164797  1.1734873374 -0.0604514418
C  -0.5030617718  1.1687388801 -0.0728651338
C   0.1524610841  0.0196304990 -0.0220886801
C  -2.5203429379 -0.0420101597 -0.0475805587
H  -2.4156694026  2.1069208828 -0.0554256511
H   0.0292989450  2.1045183104 -0.1027607188
H  -3.5941301006 -0.0575120286 -0.0371314260
N   1.6212677459  0.0220806957  0.0116680051
O   2.2176987257 -1.0270023539  0.1392990856
O   2.2276830471  1.0667740205 -0.0377024137
C  -1.8725797800 -1.2035010502  0.0075608305
H  -2.3276340053 -2.1859816758  0.0512061873
C  -0.4952586511 -1.1912759376  0.0931479589
H  -0.0249973463 -2.0128049627 -0.4111099800
14
Step 29  E=-436.5297583914  phi=145.920  theta=73.051
C  -1.8790282997  1.1738327430 -0.0616648146
C  -0.5012907620  1.1693311262 -0.0733492905
C   0.1537128402  0.0248451790 -0.0190995359
C  -2.5198526805 -0.0412228250 -0.0482433954
H  -2.4188053689  2.1080922023 -0.0578803794
H   0.0343438337  2.1036805211 -0.1058613624
H  -3.5947895461 -0.0594932171 -0.0430255501
N   1.6149755391  0.0214684875  0.0106433731
O   2.2188636466 -1.0296762661  0.1404223093
O   2.2274532042  1.0676781072 -0.0381108368
C  -1.8738672595 -1.2037271719  0.0102428787
H  -2.3288598666 -2.1863319665  0.0391168178
C  -0.4917029973 -1.1942994085  0.0924344962
H  -0.0176364152 -2.0181144100 -0.4154996949
14
Step 30  E=-436.5298126702  phi=146.174  theta=72.936
C  -1.8792469992  1.1741109477 -0.0629359061
C  -0.4997966177  1.1709358042 -0.0737815916
C   0.1552714331  0.0292086343 -0.0158657010
C  -2.5201388531 -0.0398573248 -0.0487991838
H  -2.4217828794  2.1088099501 -0.0607408870
H   0.0400518708  2.1031854113 -0.1089807005
H  -3.5961298862 -0.0612862823 -0.0493345429
N   1.6093811135  0.0207763021  0.0096630829
O   2.2196606787 -1.0323313908  0.1415279691
O   2.2270065814  1.0686884895 -0.0385715340
C  -1.8745536142 -1.2046385930  0.0131362085
H  -2.3317188743 -2.1858042319  0.0261580848
C  -0.4881695521 -1.1972675438  0.0909216755
H  -0.0083150287 -2.0257563375 -0.4148019656
14
Step 31  E=-436.5306016815  phi=146.403  theta=72.814
C  -1.8793699378  1.1743492977 -0.0642620518
C  -0.4986076024  1.1735753257 -0.0741625897
C   0.1570933280  0.0326017877 -0.0123974077
C  -2.5211901996 -0.0379489296 -0.0492476100
H  -2.4244439570  2.1089017850 -0.0640263874
H   0.0462867429  2.1030493216 -0.1121058732
H  -3.5980047901 -0.0628216391 -0.0560273733
N   1.6046248752  0.0200115448  0.0087448865
O   2.2200408825 -1.0349066051  0.1426055502
O   2.2263100212  1.0697541116 -0.0390854639
C  -1.8745797015 -1.2062177876  0.0162104972
H  -2.3362005027 -2.1844666481  0.0124925244
C  -0.4846951612 -1.2001564750  0.0886095991
H   0.0025631699 -2.0350856882 -0.4088156902
14
Step 32  E=-436.5321432343  phi=146.604  theta=72.687
C  -1.8793987418  1.1745769484 -0.0656403914
C  -0.4977299810  1.1772320420 -0.0744917480
C   0.1591218998  0.0349509520 -0.0087094563
C  -2.5229709634 -0.0355612352 -0.0495885224
H  -2.4266740063  2.1082716726 -0.0677548323
H   0.0529008632  2.1033088584 -0.1152235087
H  -3.6002841267 -0.0640293591 -0.0630635859
N   1.6008265740  0.0191834253  0.0079056423
O   2.2199659931 -1.0373502077  0.1436458080
O   2.2253365868  1.0708287889 -0.0396536140
C  -1.8739178595 -1.2084172508  0.0194301952
H  -2.3422465923 -2.1824279081 -0.0017035760
C  -0.4813114547 -1.2029495043  0.0855113236
H   0.0146018174 -2.0454858511 -0.3974232329
14
Step 33  E=-436.5343670399  phi=146.774  theta=72.556
C  -1.8793381236  1.1748225161 -0.0670679580
C  -0.4971483282  1.1818482485 -0.0747670932
C   0.1612887776  0.0362289591 -0.0048211971
C  -2.5254218045 -0.0327823567 -0.0498218413
H  -2.4284130029  2.1069157210 -0.0719428730
H   0.0597405156  2.1040199688 -0.1183197930
H  -3.6028653986 -0.0648426539 -0.0703937668
N   1.5980820347  0.0183019955  0.0071611306
O   2.2194090151 -1.0396202936  0.1446408671
O   2.2240664184  1.0718722409 -0.0402769966
C  -1.8725717944 -1.2111638785  0.0227551535
H  -2.3497442485 -2.1798164737 -0.0162433744
C  -0.4780458060 -1.2056339051  0.0816545899
H   0.0274388684 -2.0564148574 -0.3806184173
14
Step 34  E=-436.5371183145  phi=146.910  theta=72.420
C  -1.8791949440  1.1751122507 -0.0685417530
C  -0.4968274486  1.1873292157 -0.0749850423
C   0.1635167403  0.0364533286 -0.0007564198
C  -2.5284621667 -0.0297194320 -0.0499475856
H  -2.4296601500  2.1049268040 -0.0766058743
H   0.0666496572  2.1052526639 -0.1213804317
H  -3.6056792018 -0.0652014764 -0.0779604556
N   1.5964604527  0.0173774135  0.0065259433
O   2.2183545706 -1.0416849018  0.1455842882
O   2.2224873637  1.0728508265 -0.0409566432
C  -1.8705751778 -1.2143651137  0.0261413006
H  -2.3585198539 -2.1767583185 -0.0309310862
C  -0.4749217550 -1.2081988136  0.0770822802
H   0.0407631934 -2.0674324772 -0.3585193237
14
Step 35  E=-436.5401780455  phi=147.014  theta=72.283
C  -1.8789775946  1.1754688577 -0.0700588047
C  -0.4967156867  1.1935488106 -0.0751404262
C   0.1657238813  0.0356819243  0.0034568557
C  -2.5319938156 -0.0264920825 -0.0499660144
H  -2.4304715730  2.1024875277 -0.0817578996
H   0.0734723356  2.1070823098 -0.1243905009
H  -3.6086885426 -0.0650559612 -0.0856993470
N   1.5960022746  0.0164194723  0.0060134353
O   2.2167990539 -1.0435220371  0.1464711156
O   2.2205953889  1.0737380345 -0.0416935975
C  -1.8679891471 -1.2179158951  0.0295413446
H  -2.3683358436 -2.1733576788 -0.0455622081
C  -0.4719589269 -1.2106342067  0.0718517319
H   0.0543215370 -2.0782095005 -0.3313668461
14
Step 36  E=-436.5432949745  phi=147.085  theta=72.143
C  -1.8786957335  1.1759110430 -0.0716162182
C  -0.4967492305  1.2003569258 -0.0752266972
C   0.1678285208  0.0340068049  0.0077866838
C  -2.5359051946 -0.0232255372 -0.0498778650
H  -2.4309510619  2.0998518364 -0.0874115420
H   0.0800539935  2.1095788828 -0.1273342029
H  -3.6118824706 -0.0643694251 -0.0935405913
N   1.5967177079  0.0154373978  0.0056357247
O   2.2147506261 -1.0451196380  0.1472979237
O   2.2183947910  1.0745147772 -0.0424889127
C  -1.8648988800 -1.2217053955  0.0329055005
H  -2.3788921326 -2.1696849317 -0.0599232195
C  -0.4691724853 -1.2129309738  0.0660331294
H   0.0679160857 -2.0885205915 -0.2995111477
14
Step 37  E=-436.5462197394  phi=147.128  theta=72.002
C  -1.8783603485  1.1764537941 -0.0732112273
C  -0.4968569278  1.2075877909 -0.0752362831
C   0.1697542479  0.0315470629  0.0121975849
C  -2.5400762194 -0.0200440712 -0.0496846508
H  -2.4312345383  2.0973166515 -0.0935774416
H   0.0862423403  2.1127959206 -0.1301945739
H  -3.6152652575 -0.0631206974 -0.1014100228
N   1.5985859372  0.0144398975  0.0054037214
O   2.2122290793 -1.0464755257  0.1480628665
O   2.2158982450  1.0751695212 -0.0433436533
C  -1.8614093982 -1.2256227076  0.0361822774
H  -2.3898338333 -2.1657743647 -0.0737919386
C  -0.4665721889 -1.2150820987  0.0597072615
H   0.0813918646 -2.0982223769 -0.2633899628
14
Step 38  E=-436.5487327262  phi=147.144  theta=71.862
C  -1.8779840684  1.1771093044 -0.0748412619
C  -0.4969651708  1.2150682731 -0.0751610310
C   0.1714344617  0.0284413995  0.0166510101
C  -2.5443831467 -0.0170652709 -0.0493889801
H  -2.4314696975  2.0951861800 -0.1002633238
H   0.0918884444  2.1167609083 -0.1329532073
H  -3.6188428315 -0.0613056529 -0.1092301822
N   1.6015551301  0.0134354385  0.0053271633
O   2.2092654980 -1.0475973771  0.1487657085
O   2.2131266952  1.0756982756 -0.0442589012
C  -1.8576407430 -1.2295609586  0.0393193790
H  -2.4007659005 -2.1616322687 -0.0869394811
C  -0.4641612539 -1.2170847947  0.0529629604
H   0.0946143308 -2.1072192763 -0.2235050734
14
Step 39  E=-436.5506611493  phi=147.138  theta=71.722
C  -1.8775815711  1.1778883132 -0.0765040448
C  -0.4970025160  1.2226254603 -0.0749926860
C   0.1728159192  0.0248410049  0.0211058678
C  -2.5487031892 -0.0143954108 -0.0489948607
H  -2.4317932839  2.0937330851 -0.1074724432
H   0.0968485836  2.1214685842 -0.1355900675
H  -3.6226086058 -0.0589379598 -0.1169210644
N   1.6055433361  0.0124326670  0.0054146487
O   2.2059018325 -1.0485026290  0.1494078777
O   2.2101090644  1.0761044712 -0.0452357710
C  -1.8537226599 -1.2334197632  0.0422647580
H  -2.4112740570 -2.1572535436 -0.0991342712
C  -0.4619350503 -1.2189431145  0.0458946894
H   0.1074430995 -2.1154214518 -0.1804027984
14
Step 40  E=-436.5518874075  phi=147.113  theta=71.584
C  -1.8771698558  1.1788014728 -0.0781977141
C  -0.4969037834  1.2300930272 -0.0747233601
C   0.1738609901  0.0209031202  0.0255191357
C  -2.5529185996 -0.0121260304 -0.0485079710
H  -2.4323093733  2.0931620989 -0.1152014379
H   0.1009873615  2.1268780390 -0.1380834489
H  -3.6265309745 -0.0560491597 -0.1244006259
N   1.6104403217  0.0114409239  0.0056736416
O   2.2021902354 -1.0492182946  0.1499924970
O   2.2068817700  1.0763987194 -0.0462754298
C  -1.8497889535 -1.2371062680  0.0449678279
H  -2.4209501138 -2.1526432037 -0.1101481277
C  -0.4598800671 -1.2206703067  0.0386007986
H   0.1197087454 -2.1227033560 -0.1346605722
14
Step 41  E=-436.5523478067  phi=147.076  theta=71.448
C  -1.8767681145  1.1798602865 -0.0799209484
C  -0.4966134593  1.2373161241 -0.0743459750
C   0.1745485219  0.0167854629  0.0298466107
C  -2.5569200118 -0.0103316405 -0.0479358764
H  -2.4330724073  2.0935821294 -0.1234377901
H   0.1041823199  2.1329137388 -0.1404101057
H  -3.6305446467 -0.0526882582 -0.1315851873
N   1.6161103784  0.0104708048  0.0061104358
O   2.1981921164 -1.0497806489  0.1505243673
O   2.2034880543  1.0765984156 -0.0473791140
C  -1.8459717359 -1.2405352455  0.0473807858
H  -2.4294190651 -2.1478384715 -0.1197641512
C  -0.4579737826 -1.2222901472  0.0311826263
H   0.1311959215 -2.1288745885 -0.0868804617
14
Step 42  E=-436.5520298764  phi=147.029  theta=71.314
C  -1.8763970130  1.1810772286 -0.0816730600
C  -0.4960883304  1.2441547646 -0.0738546710
C   0.1748734539  0.0126414734  0.0340438559
C  -2.5606089126 -0.0090684275 -0.0472881707
H  -2.4340782216  2.0949919588 -0.1321572943
H   0.1063297860  2.1394699457 -0.1425455589
H  -3.6345473752 -0.0489210068 -0.1383899445
N   1.6223960740  0.0095346292  0.0067300753
O   2.1939770208 -1.0502345680  0.1510099055
O   2.1999771232  1.0767271642 -0.0485481380
C  -1.8423958410 -1.2436287155  0.0494599570
H  -2.4363649538 -2.1429273230 -0.1277857092
C  -0.4561859397 -1.2238364587  0.0237440106
H   0.1416353642 -2.1336728126 -0.0376930812
14
Step 43  E=-436.5509733131  phi=146.977  theta=71.185
C  -1.8760773222  1.1824648568 -0.0834540237
C  -0.4952993466  1.2504859107 -0.0732451612
C   0.1748453683  0.0086163151  0.0380673021
C  -2.5638992093 -0.0083737960 -0.0465765150
H  -2.4352648559  2.0972822014 -0.1413220655
H   0.1073512191  2.1464176430 -0.1444646021
H  -3.6384028176 -0.0448289889 -0.1447298131
N   1.6291228407  0.0086467769  0.0075362446
O   2.1896209822 -1.0506325736  0.1514569779