[Molden Format]
[Atoms] (AU)
C    1    6          -3.5627646139         2.2867634838         0.0002476130
C    2    6          -0.9340667562         2.3015392524         0.0003061945
C    3    6           0.3353038562         0.0000002302         0.0003269815
H    4    1          -4.5855732101         4.0624635348        -0.0003268637
H    5    1           0.1361871938         4.0428122729         0.0001758034
N    6    7           3.1331189740         0.0000002302         0.0001795829
O    7    8           4.2036582727        -2.0493227152        -0.0002361569
O    8    8           4.2036582727         2.0493212859        -0.0004232398
C    9    6          -3.5627665036        -2.2867630234         0.0001682445
H   10    1          -4.5855769896        -4.0624611847        -0.0004780418
C   11    6          -0.9340686460        -2.3015387920         0.0002381644
H   12    1           0.1361853041        -4.0428118125         0.0000718685
C   13    6          -4.8749507511         0.0000002302        -0.0003967836
H   14    1          -6.9252450158         0.0000002302        -0.0020748604
[GTO]
  1 0
 s    6  1.00
     4563.2400000000         0.0019666500
      682.0240000000         0.0152306000
      154.9730000000         0.0761269000
       44.4553000000         0.2608010000
       13.0290000000         0.6164620000
        1.8277300000         0.2210060000
 s    3  1.00
       20.9642000000         0.1146600000
        4.8033100000         0.9199990000
        1.4593300000        -0.0030306800
 p    3  1.00
       20.9642000000         0.0402487000
        4.8033100000         0.2375940000
        1.4593300000         0.8158540000
 s    1  1.00
        0.4834560000         1.0000000000
 p    1  1.00
        0.4834560000         1.0000000000
 s    1  1.00
        0.1455850000         1.0000000000
 p    1  1.00
        0.1455850000         1.0000000000
 d    1  1.00
        0.6260000000         1.0000000000

  2 0
 s    6  1.00
     4563.2400000000         0.0019666500
      682.0240000000         0.0152306000
      154.9730000000         0.0761269000
       44.4553000000         0.2608010000
       13.0290000000         0.6164620000
        1.8277300000         0.2210060000
 s    3  1.00
       20.9642000000         0.1146600000
        4.8033100000         0.9199990000
        1.4593300000        -0.0030306800
 p    3  1.00
       20.9642000000         0.0402487000
        4.8033100000         0.2375940000
        1.4593300000         0.8158540000
 s    1  1.00
        0.4834560000         1.0000000000
 p    1  1.00
        0.4834560000         1.0000000000
 s    1  1.00
        0.1455850000         1.0000000000
 p    1  1.00
        0.1455850000         1.0000000000
 d    1  1.00
        0.6260000000         1.0000000000

  3 0
 s    6  1.00
     4563.2400000000         0.0019666500
      682.0240000000         0.0152306000
      154.9730000000         0.0761269000
       44.4553000000         0.2608010000
       13.0290000000         0.6164620000
        1.8277300000         0.2210060000
 s    3  1.00
       20.9642000000         0.1146600000
        4.8033100000         0.9199990000
        1.4593300000        -0.0030306800
 p    3  1.00
       20.9642000000         0.0402487000
        4.8033100000         0.2375940000
        1.4593300000         0.8158540000
 s    1  1.00
        0.4834560000         1.0000000000
 p    1  1.00
        0.4834560000         1.0000000000
 s    1  1.00
        0.1455850000         1.0000000000
 p    1  1.00
        0.1455850000         1.0000000000
 d    1  1.00
        0.6260000000         1.0000000000

  4 0
 s    3  1.00
       33.8650000000         0.0254938000
        5.0947900000         0.1903730000
        1.1587900000         0.8521610000
 s    1  1.00
        0.3258400000         1.0000000000
 s    1  1.00
        0.1027410000         1.0000000000

  5 0
 s    3  1.00
       33.8650000000         0.0254938000
        5.0947900000         0.1903730000
        1.1587900000         0.8521610000
 s    1  1.00
        0.3258400000         1.0000000000
 s    1  1.00
        0.1027410000         1.0000000000

  6 0
 s    6  1.00
     6293.4800000000         0.0019697900
      949.0440000000         0.0149613000
      218.7760000000         0.0735006000
       63.6916000000         0.2489370000
       18.8282000000         0.6024600000
        2.7202300000         0.2562020000
 s    3  1.00
       30.6331000000         0.1119060000
        7.0261400000         0.9216660000
        2.1120500000        -0.0025691900
 p    3  1.00
       30.6331000000         0.0383119000
        7.0261400000         0.2374030000
        2.1120500000         0.8175920000
 s    1  1.00
        0.6840090000         1.0000000000
 p    1  1.00
        0.6840090000         1.0000000000
 s    1  1.00
        0.2008780000         1.0000000000
 p    1  1.00
        0.2008780000         1.0000000000
 d    1  1.00
        0.9130000000         1.0000000000

  7 0
 s    6  1.00
     8588.5000000000         0.0018951500
     1297.2300000000         0.0143859000
      299.2960000000         0.0707320000
       87.3771000000         0.2400010000
       25.6789000000         0.5947970000
        3.7400400000         0.2808020000
 s    3  1.00
       42.1175000000         0.1138890000
        9.6283700000         0.9208110000
        2.8533200000        -0.0032744700
 p    3  1.00
       42.1175000000         0.0365114000
        9.6283700000         0.2371530000
        2.8533200000         0.8197020000
 s    1  1.00
        0.9056610000         1.0000000000
 p    1  1.00
        0.9056610000         1.0000000000
 s    1  1.00
        0.2556110000         1.0000000000
 p    1  1.00
        0.2556110000         1.0000000000
 d    1  1.00
        1.2920000000         1.0000000000

  8 0
 s    6  1.00
     8588.5000000000         0.0018951500
     1297.2300000000         0.0143859000
      299.2960000000         0.0707320000
       87.3771000000         0.2400010000
       25.6789000000         0.5947970000
        3.7400400000         0.2808020000
 s    3  1.00
       42.1175000000         0.1138890000
        9.6283700000         0.9208110000
        2.8533200000        -0.0032744700
 p    3  1.00
       42.1175000000         0.0365114000
        9.6283700000         0.2371530000
        2.8533200000         0.8197020000
 s    1  1.00
        0.9056610000         1.0000000000
 p    1  1.00
        0.9056610000         1.0000000000
 s    1  1.00
        0.2556110000         1.0000000000
 p    1  1.00
        0.2556110000         1.0000000000
 d    1  1.00
        1.2920000000         1.0000000000

  9 0
 s    6  1.00
     4563.2400000000         0.0019666500
      682.0240000000         0.0152306000
      154.9730000000         0.0761269000
       44.4553000000         0.2608010000
       13.0290000000         0.6164620000
        1.8277300000         0.2210060000
 s    3  1.00
       20.9642000000         0.1146600000
        4.8033100000         0.9199990000
        1.4593300000        -0.0030306800
 p    3  1.00
       20.9642000000         0.0402487000
        4.8033100000         0.2375940000
        1.4593300000         0.8158540000
 s    1  1.00
        0.4834560000         1.0000000000
 p    1  1.00
        0.4834560000         1.0000000000
 s    1  1.00
        0.1455850000         1.0000000000
 p    1  1.00
        0.1455850000         1.0000000000
 d    1  1.00
        0.6260000000         1.0000000000

  10 0
 s    3  1.00
       33.8650000000         0.0254938000
        5.0947900000         0.1903730000
        1.1587900000         0.8521610000
 s    1  1.00
        0.3258400000         1.0000000000
 s    1  1.00
        0.1027410000         1.0000000000

  11 0
 s    6  1.00
     4563.2400000000         0.0019666500
      682.0240000000         0.0152306000
      154.9730000000         0.0761269000
       44.4553000000         0.2608010000
       13.0290000000         0.6164620000
        1.8277300000         0.2210060000
 s    3  1.00
       20.9642000000         0.1146600000
        4.8033100000         0.9199990000
        1.4593300000        -0.0030306800
 p    3  1.00
       20.9642000000         0.0402487000
        4.8033100000         0.2375940000
        1.4593300000         0.8158540000
 s    1  1.00
        0.4834560000         1.0000000000
 p    1  1.00
        0.4834560000         1.0000000000
 s    1  1.00
        0.1455850000         1.0000000000
 p    1  1.00
        0.1455850000         1.0000000000
 d    1  1.00
        0.6260000000         1.0000000000

  12 0
 s    3  1.00
       33.8650000000         0.0254938000
        5.0947900000         0.1903730000
        1.1587900000         0.8521610000
 s    1  1.00
        0.3258400000         1.0000000000
 s    1  1.00
        0.1027410000         1.0000000000

  13 0
 s    6  1.00
     4563.2400000000         0.0019666500
      682.0240000000         0.0152306000
      154.9730000000         0.0761269000
       44.4553000000         0.2608010000
       13.0290000000         0.6164620000
        1.8277300000         0.2210060000
 s    3  1.00
       20.9642000000         0.1146600000
        4.8033100000         0.9199990000
        1.4593300000        -0.0030306800
 p    3  1.00
       20.9642000000         0.0402487000
        4.8033100000         0.2375940000
        1.4593300000         0.8158540000
 s    1  1.00
        0.4834560000         1.0000000000
 p    1  1.00
        0.4834560000         1.0000000000
 s    1  1.00
        0.1455850000         1.0000000000
 p    1  1.00
        0.1455850000         1.0000000000
 d    1  1.00
        0.6260000000         1.0000000000

  14 0
 s    3  1.00
       33.8650000000         0.0254938000
        5.0947900000         0.1903730000
        1.1587900000         0.8521610000
 s    1  1.00
        0.3258400000         1.0000000000
 s    1  1.00
        0.1027410000         1.0000000000

[5D]
[9G]

[MO]
 Sym= A
 Ene=        -2.0596438505e+01
 Spin= Alpha
 Occup=         0.0000000000e+00
  1        -8.0728501741e-08
  2         8.1767434754e-07
  3        -1.0948541030e-06
  4        -1.9319365245e-06
  5        -1.7023387065e-09
  6        -2.1072113335e-06
  7         1.6170084375e-06
  8         8.7187442706e-06
  9         5.6770376693e-09
 10        -1.2872679916e-04
 11        -2.4551395642e-04
 12        -2.4563231336e-04
 13        -5.7373693394e-08
 14         4.5424978446e-06
 15         1.2683331474e-09
 16         7.2145111497e-09
 17        -5.1253759980e-06
 18         2.7631925048e-06
 19        -5.2980219837e-07
 20         4.7778006035e-07
 21         1.9775875016e-07
 22        -1.7956775262e-06
 23         4.5719690839e-09
 24        -3.7980027981e-07
 25        -7.0434775734e-06
 26         1.1381157205e-05
 27        -1.6418415816e-08
 28        -8.7718733386e-04
 29        -6.1408485832e-04
 30         5.1671277800e-04
 31         2.5375976982e-08
 32         1.6894054480e-06
 33        -8.6920704171e-10
 34         5.1026422679e-10
 35         9.7120529342e-06
 36         1.5600135156e-05
 37        -7.5237079464e-09
 38        -2.8738895064e-09
 39         5.6482629637e-08
 40        -5.1095200146e-06
 41         8.7512165240e-10
 42        -6.0415381823e-08
 43        -9.9758533280e-08
 44         1.9029235999e-05
 45        -3.6453778813e-09
 46         1.7699416899e-06
 47        -6.5688423772e-08
 48         1.6688140855e-03
 49         5.8319495147e-09
 50        -1.4685669914e-08
 51        -3.2964226875e-09
 52        -4.0969718041e-09
 53        -1.2309979725e-07
 54         2.5878077802e-05
 55        -1.1412512084e-06
 56         2.8726554559e-05
 57         2.7571794834e-05
 58         6.0296840787e-08
 59         4.4426040258e-05
 60        -8.9946372499e-05
 61        -1.2737211820e-07
 62         1.8976689053e-07
 63        -1.7133381161e-07
 64        -6.8515268231e-05
 65         2.9414784352e-09
 66        -9.6272819810e-07
 67        -7.7552318672e-07
 68        -4.3428797160e-04
 69         2.1177286278e-08
 70        -2.6316801279e-06
 71        -9.9295066577e-07
 72        -1.3143530584e-03
 73         4.5779297849e-08
 74         3.8244250540e-07
 75         1.3299487307e-08
 76         1.3238425716e-07
 77         5.8327666867e-07
 78        -2.7409979291e-04
 79         3.8860869232e-01
 80         3.3239006248e-01
 81        -7.0608537312e-04
 82         1.2762013772e-03
 83         3.2220502189e-07
 84         3.7543648988e-03
 85         2.7666982346e-04
 86        -5.2142813060e-04
 87        -1.2864921705e-07
 88        -1.0181038086e-03
 89         1.8274256926e-04
 90        -1.1629869535e-04
 91        -9.4032105249e-08
 92        -3.2986679828e-05
 93        -2.1481007221e-08
 94        -7.5859096217e-08
 95         9.6772509423e-05
 96         1.4409287053e-04
 97        -3.9132969858e-01
 98        -3.3471743174e-01
 99         7.1101461104e-04
100         1.2849739736e-03
101        -4.4641376780e-07
102        -3.7805093989e-03
103        -2.7836990630e-04
104        -5.2481315348e-04
105         1.7656617636e-07
106         1.0220848095e-03
107        -1.8274120164e-04
108        -1.1672064320e-04
109         1.1466957829e-07
110         3.3308481497e-05
111         6.1577734436e-09
112        -8.0236293898e-08
113        -9.7395601288e-05
114         1.4488118102e-04
115         8.1834650010e-08
116        -8.2434895019e-07
117         1.0961891678e-06
118        -1.9168458131e-06
119         1.2187925915e-09
120         2.2199869615e-06
121        -1.6266926252e-06
122         8.6566276572e-06
123        -3.8996694931e-09
124         1.2647681612e-04
125         2.4428921904e-04
126        -2.4537860870e-04
127         4.1149085327e-08
128        -4.4949694178e-06
129        -1.3731456468e-09
130         7.1843462657e-09
131         5.1002844812e-06
132         2.7460370812e-06
133         1.1477471258e-06
134        -2.8656913477e-05
135        -2.7583720664e-05
136         5.2724471229e-07
137        -4.6995442725e-07
138        -2.2916553112e-07
139        -1.8021608437e-06
140        -3.9522050314e-09
141         3.5789741104e-07
142         7.1309677546e-06
143         1.1329973548e-05
144         1.3340399150e-08
145         8.7775412148e-04
146         6.1202633642e-04
147         5.1564614985e-04
148         1.0718658306e-08
149        -1.6326303798e-06
150         2.2526198922e-09
151         2.9583181640e-09
152        -9.5869877716e-06
153         1.5477861429e-05
154        -5.6388949066e-08
155        -4.4271269316e-05
156         8.9536772667e-05
157        -1.0924722970e-10
158        -2.4905685186e-10
159        -1.4618891171e-09
160        -2.6028224263e-07
161         1.8217115861e-10
162        -1.1750948303e-08
163         9.0087184893e-09
164        -1.9737584744e-07
165        -5.7830703951e-10
166        -8.9509643112e-08
167         3.1080314343e-07
168        -2.4819650137e-04
169        -1.0415274187e-09
170        -7.1714119447e-10
171         1.5150708201e-10
172        -4.5983518215e-09
173        -1.4695140975e-09
174        -3.4542741052e-06
175        -9.6238227222e-09
176         1.0451133080e-07
177         3.9702732246e-08
 Sym= A
 Ene=        -2.0596386274e+01
 Spin= Alpha
 Occup=         0.0000000000e+00
  1        -1.5873186291e-07
  2         9.5897667458e-07
  3        -1.9543866673e-07
  4         2.1556177444e-06
  5         1.0906053783e-09
  6        -1.6163609936e-05
  7         1.3925929143e-06
  8        -8.8695229061e-06
  9        -4.0748690202e-09
 10         3.2188773370e-04
 11         1.7459791557e-04
 12         3.5527507462e-05
 13         1.8559354287e-08
 14        -6.7939925475e-06
 15         9.5761454078e-11
 16        -3.6109801555e-10
 17         3.5773069223e-06
 18        -2.4475516783e-06
 19         3.6468523851e-07
 20        -1.1202365990e-06
 21         4.4982529546e-06
 22        -9.3590652264e-07
 23        -1.0236612441e-09
 24         3.1273364048e-06
 25        -1.2550777011e-05
 26        -7.2944901571e-06
 27         7.1853206211e-09
 28        -8.4227705745e-05
 29         2.9281765313e-04
 30        -1.5109840819e-04
 31        -2.7989414503e-08
 32        -8.1363423490e-06
 33        -1.5198961071e-09
 34         3.4431636769e-09
 35        -1.7884093264e-05
 36        -1.7470807443e-05
 37         2.1565458724e-06
 38         8.2260948171e-07
 39        -1.6188761435e-05
 40        -1.7820156313e-08
 41        -1.5082082261e-09
 42         1.7323970832e-05
 43         2.8588725415e-05
 44         6.6344413541e-08
 45         8.9872535822e-09
 46        -5.0719351804e-04
 47         1.9147194444e-05
 48         5.8189108030e-06
 49         5.5470992197e-08
 50         4.2120948293e-06
 51         6.7652261480e-09
 52        -1.0067433327e-09
 53         3.5287525613e-05
 54         9.0282039696e-08
 55        -9.3398903615e-07
 56        -9.8809267746e-06
 57         1.7925862076e-06
 58        -5.6127765360e-07
 59        -2.2014317442e-05
 60         5.8413710348e-05
 61         3.6478749342e-05
 62        -5.4371835368e-05
 63         4.9070800442e-05
 64        -2.3872956381e-07
 65        -2.1789164031e-08
 66         2.7577186528e-04
 67         2.2220523195e-04
 68        -1.5150313976e-06
 69        -7.8720074573e-08
 70         7.5348662718e-04
 71         2.8441716497e-04
 72        -4.5830770152e-06
 73        -1.6805376940e-07
 74        -1.0960230058e-04
 75        -3.2693417575e-08
 76        -1.5735766304e-08
 77        -1.6718717421e-04
 78        -9.5615946623e-07
 79         3.9133240636e-01
 80         3.3471989842e-01
 81        -7.0877591598e-04
 82         1.2616636996e-03
 83         3.2815398675e-07
 84         3.7599218094e-03
 85         2.4457573780e-04
 86        -4.8693945599e-04
 87        -1.3014847421e-07
 88        -5.7358609187e-04
 89         3.5624325319e-07
 90        -6.0757498967e-05
 91         3.7178284551e-08
 92        -4.6158077530e-05
 93        -3.0955131059e-08
 94        -6.1046324995e-08
 95         8.9681770752e-05
 96         1.1352159061e-04
 97         3.8861141829e-01
 98         3.3239254611e-01
 99        -7.0383310723e-04
100        -1.2527290233e-03
101         4.4496251984e-07
102         3.7336365419e-03
103         2.4263961081e-04
104         4.8328933442e-04
105        -1.7315143489e-07
106        -5.6647268170e-04
107        -9.1797188505e-07
108         5.9945717078e-05
109         2.8072673834e-08
110        -4.5927353322e-05
111        -1.8349927710e-08
112         6.1037806772e-08
113         8.9003939848e-05
114        -1.1251316260e-04
115        -1.5816538024e-07
116         9.5325078008e-07
117        -1.8780369113e-07
118        -2.1690404502e-06
119         5.8361140293e-10
120        -1.6148532785e-05
121         1.3812993361e-06
122         8.9301247364e-06
123        -2.4106120135e-09
124         3.2277787149e-04
125         1.7630606030e-04
126        -3.7239655415e-05
127         1.3463551078e-08
128        -6.8255122760e-06
129         4.9770327671e-12
130         5.1985625739e-10
131         3.6129620644e-06
132         2.4667584009e-06
133        -9.2601306246e-07
134        -1.0080978974e-05
135         1.6002377456e-06
136         3.6837163173e-07
137        -1.1235384964e-06
138         4.4967753205e-06
139         9.2337971820e-07
140         2.7357654789e-10
141         3.1299307844e-06
142        -1.2501425444e-05
143         7.3735404196e-06
144         3.0294322367e-09
145        -7.8109197831e-05
146         2.9709322703e-04
147         1.5469827796e-04
148        -1.3186800007e-08
149        -8.1479036637e-06
150        -6.7366909432e-10
151        -2.2718039234e-09
152        -1.7951375065e-05
153         1.7579169006e-05
154        -5.6168293287e-07
155        -2.2323637331e-05
156         5.9039893319e-05
157         3.1333947222e-08
158         7.1249455548e-08
159         4.1889319072e-07
160        -9.1373214337e-10
161        -5.5157202001e-11
162         3.3704625780e-06
163        -2.5816350341e-06
164        -6.5486106232e-10
165        -1.4741654914e-09
166         2.5710298333e-05
167        -8.9099687780e-05
168        -8.6552317605e-07
169        -2.6383050195e-08
170         2.0631256859e-07
171         3.1304143995e-09
172        -2.1417837539e-10
173         4.2174765141e-07
174        -1.2037271209e-08
175         2.7591908277e-06
176        -2.9961390893e-05
177        -1.1377041893e-05
 Sym= A
 Ene=        -1.5852610040e+01
 Spin= Alpha
 Occup=         0.0000000000e+00
  1        -1.1748547137e-07
  2        -1.0490454521e-06
  3         1.0148536810e-06
  4        -2.1294464587e-07
  5        -9.0723976484e-10
  6         7.6789401351e-06
  7        -1.0717815961e-06
  8         4.8858109373e-06
  9         5.2244465825e-09
 10        -5.3327398984e-04
 11        -1.7537292367e-04
 12         8.1411407264e-05
 13        -1.8275720172e-08
 14        -1.2288679643e-06
 15         7.8102021438e-10
 16        -2.8117379884e-09
 17         1.4807379526e-06
 18        -7.6454777833e-06
 19         1.1655153281e-06
 20        -1.5731502535e-06
 21        -1.2762635967e-05
 22         1.0421566407e-05
 23         1.5459115172e-09
 24        -1.1708083188e-05
 25         4.4250403127e-05
 26        -5.1837602903e-05
 27        -7.3232187636e-09
 28         5.7826738974e-04
 29        -4.1058273920e-04
 30        -2.4863422718e-04
 31         3.4841463799e-08
 32        -1.3262382174e-05
 33         1.9694808272e-10
 34        -2.0170508600e-09
 35         1.3727393184e-06
 36        -2.2154763886e-05
 37         5.3419692206e-06
 38        -1.9606521663e-05
 39         6.0551223129e-05
 40        -2.5415382843e-11
 41        -3.7233536218e-09
 42         1.5162177548e-04
 43         1.9028965639e-04
 44        -1.2509717109e-10
 45        -5.5863060307e-09
 46         7.4090343592e-05
 47         9.1414858938e-04
 48        -1.7716268286e-09
 49        -4.0847465674e-08
 50        -4.5639064165e-06
 51        -9.9150753066e-09
 52         7.5248821404e-10
 53         1.2582079150e-04
 54         1.2603628137e-10
 55        -2.0956794625e-06
 56         5.2931990621e-06
 57        -1.4385578289e-05
 58        -8.6511781868e-06
 59         9.0018657358e-05
 60         5.0393825642e-05
 61         5.5789705657e-01
 62         4.6829370166e-01
 63         3.9006679080e-04
 64         2.7494325493e-09
 65        -1.8457781250e-07
 66         4.2162822026e-03
 67        -1.9448734175e-04
 68        -1.0101654995e-09
 69         1.9435941171e-08
 70        -8.1248616762e-04
 71         5.3011202944e-04
 72         1.9420778119e-09
 73        -3.2533272175e-08
 74        -2.1276647452e-04
 75        -8.0491351964e-08
 76        -1.8172895329e-08
 77        -5.4974284521e-05
 78         3.0124297908e-10
 79        -1.1707896815e-04
 80        -1.6118908470e-04
 81        -5.6936372116e-05
 82         9.1703579146e-05
 83         1.4259226956e-08
 84         2.5482121144e-04
 85        -1.3707799022e-04
 86         3.1780821719e-04
 87         5.0228229935e-08
 88        -1.5679533812e-05
 89        -5.7134127654e-05
 90        -5.9691762505e-05
 91        -1.6349583057e-08
 92        -4.8157575870e-05
 93         6.1043437259e-10
 94         3.7346067450e-08
 95        -9.9361348616e-05
 96        -1.2280059058e-04
 97        -1.1707946261e-04
 98        -1.6118982759e-04
 99        -5.6936591528e-05
100        -9.1703934924e-05
101         2.3022266486e-08
102         2.5482246147e-04
103        -1.3707857322e-04
104        -3.1780905076e-04
105         7.7049446567e-08
106        -1.5681468147e-05
107        -5.7133790821e-05
108         5.9692398595e-05
109        -1.7681499824e-08
110        -4.8157796110e-05
111        -1.1224775262e-08
112        -5.3697172308e-08
113        -9.9361538127e-05
114         1.2280115491e-04
115        -1.1748741306e-07
116        -1.0490328325e-06
117         1.0148674181e-06
118         2.1293746938e-07
119        -6.0427038161e-10
120         7.6788925906e-06
121        -1.0719108022e-06
122        -4.8857857259e-06
123         4.1927526243e-09
124        -5.3327393114e-04
125        -1.7537303853e-04
126        -8.1411613310e-05
127        -1.8857987474e-08
128        -1.2288413952e-06
129         1.2614681180e-09
130         2.7436007437e-09
131         1.4806799738e-06
132         7.6454816060e-06
133        -2.0956783216e-06
134         5.2930853680e-06
135        -1.4385675252e-05
136         1.1655106461e-06
137        -1.5731339607e-06
138        -1.2762616949e-05
139        -1.0421536210e-05
140         4.4160634736e-12
141        -1.1708184778e-05
142         4.4250176912e-05
143         5.1837319573e-05
144        -1.9034131827e-09
145         5.7826519155e-04
146        -4.1058295879e-04
147         2.4863354987e-04
148         3.4512185372e-08
149        -1.3262382346e-05
150         1.4543250113e-09
151         3.7191671254e-09
152         1.3728917185e-06
153         2.2154716287e-05
154        -8.6511780902e-06
155         9.0018629735e-05
156         5.0393788788e-05
157        -1.6025098592e-07
158         7.0875831404e-07
159         6.0826926842e-08
160        -2.0192115163e-12
161         1.4123637224e-09
162        -1.6606673679e-05
163         7.0025459040e-07
164         6.7365135958e-12
165        -4.3605087384e-09
166         2.2913043068e-04
167         1.8116490581e-04
168        -2.1204243547e-11
169         9.4806441124e-08
170        -5.7494150064e-06
171         1.3238789021e-09
172         3.2503665285e-10
173        -5.4360813631e-06
174         1.9341646765e-11
175        -4.0076917832e-06
176         3.3181254604e-05
177         3.0159593654e-05
 Sym= A
 Ene=        -1.1313586095e+01
 Spin= Alpha
 Occup=         0.0000000000e+00
  1         7.1241952711e-05
  2         6.2340381378e-05
  3         5.7588444765e-06
  4         8.1890030237e-06
  5         1.5074741135e-09
  6        -3.0850389746e-05
  7        -2.8103860319e-05
  8        -1.8808952344e-05
  9        -3.7306362770e-09
 10        -3.7344407469e-04
 11        -1.2265088123e-04
 12        -6.8055894217e-05
 13         2.8369847651e-08
 14        -3.9458407273e-06
 15         2.1931791999e-10
 16        -1.5774238120e-09
 17        -1.7980626200e-05
 18        -3.3857671940e-05
 19         9.4694317805e-03
 20         7.8060722832e-03
 21         1.1173124760e-04
 22        -2.1243080378e-04
 23         4.5706701832e-09
 24         2.2814620944e-04
 25        -2.6802461581e-05
 26         6.8273142703e-05
 27         1.8332387685e-09
 28         5.9974283406e-04
 29        -4.2272586036e-04
 30        -3.4672286711e-04
 31        -1.8762088412e-08
 32         8.1753277928e-05
 33         6.0463589781e-09
 34        -4.9611591558e-10
 35         2.2094787025e-05
 36        -9.9785637849e-06
 37         5.6318665211e-01
 38         4.6640955723e-01
 39         1.2888695208e-03
 40        -8.8966623606e-10
 41         8.7981647953e-08
 42         4.3059772875e-03
 43        -1.2565001624e-03
 44         2.7742760784e-09
 45        -8.9813441529e-08
 46        -4.5054390108e-04
 47         1.5061323496e-03
 48        -1.4440255447e-10
 49         7.3495511233e-08
 50        -3.0658321395e-04
 51         2.5786769535e-09
 52         1.4325647714e-08
 53        -4.4468795077e-04
 54        -8.3091909557e-10
 55        -1.0188170785e-05
 56         4.4529304451e-05
 57         2.6454701837e-05
 58         6.0660301360e-06
 59         4.0664648196e-05
 60         1.4402832467e-04
 61        -8.5467364537e-05
 62        -1.6381200711e-04
 63        -5.7529678881e-05
 64         7.8880671163e-11
 65         2.2323717332e-09
 66         5.0692334324e-04
 67        -6.4770606883e-04
 68        -3.4318515751e-10
 69         1.0393601690e-07
 70        -6.7440582761e-04
 71         3.9464208593e-04
 72        -5.5875450089e-10
 73        -1.0949680064e-07
 74        -5.6984162068e-05
 75        -2.4952670116e-08
 76         5.8801948659e-09
 77         2.8791021682e-04
 78        -1.2808041637e-10
 79         2.6678679248e-06
 80        -5.7121635117e-06
 81         2.0113352625e-05
 82        -1.7087813151e-05
 83        -8.4843677309e-09
 84         5.6925743547e-05
 85        -1.4581143498e-05
 86         6.1826563394e-05
 87         7.6356689683e-09
 88        -1.0580383587e-04
 89         1.0628207323e-05
 90        -2.9698843825e-05
 91         8.3270375660e-09
 92        -1.4596037540e-05
 93        -7.5833345860e-09
 94         1.2327459536e-08
 95        -1.7846644124e-05
 96        -3.1768403262e-05
 97         2.6678712100e-06
 98        -5.7121776041e-06
 99         2.0113386673e-05
100         1.7087805583e-05
101        -1.0453715819e-08
102         5.6925800142e-05
103        -1.4581297407e-05
104        -6.1826834103e-05
105         1.4987569102e-08
106        -1.0580282287e-04
107         1.0627839535e-05
108         2.9698494037e-05
109         5.8903461538e-09
110        -1.4596089487e-05
111        -1.1375910178e-08
112        -1.6960322528e-08
113        -1.7846643646e-05
114         3.1768555156e-05
115         7.1241665870e-05
116         6.2340115571e-05
117         5.7588158818e-06
118        -8.1889825325e-06
119         1.1777645035e-09
120        -3.0850177586e-05
121        -2.8103656569e-05
122         1.8808779686e-05
123        -3.3640440119e-09
124        -3.7344602862e-04
125        -1.2265178769e-04
126         6.8054720901e-05
127         2.9359336766e-08
128        -3.9458901050e-06
129         9.6652028338e-10
130         2.1634900951e-09
131        -1.7980466265e-05
132         3.3857641558e-05
133        -1.0188155693e-05
134         4.4529032124e-05
135         2.6454386662e-05
136         9.4694251968e-03
137         7.8060666899e-03
138         1.1173107941e-04
139         2.1243034856e-04
140         1.0882805722e-08
141         2.2814675673e-04
142        -2.6801426579e-05
143        -6.8271377735e-05
144         1.0923076881e-09
145         5.9974554855e-04
146        -4.2272670901e-04
147         3.4672398899e-04
148        -1.0388059747e-08
149         8.1752961810e-05