
                                 *****************
                                 * O   R   C   A *
                                 *****************

                                            #,                                       
                                            ###                                      
                                            ####                                     
                                            #####                                    
                                            ######                                   
                                           ########,                                 
                                     ,,################,,,,,                         
                               ,,#################################,,                 
                          ,,##########################################,,             
                       ,#########################################, ''#####,          
                    ,#############################################,,   '####,        
                  ,##################################################,,,,####,       
                ,###########''''           ''''###############################       
              ,#####''   ,,,,##########,,,,          '''####'''          '####       
            ,##' ,,,,###########################,,,                        '##       
           ' ,,###''''                  '''############,,,                           
         ,,##''                                '''############,,,,        ,,,,,,###''
      ,#''                                            '''#######################'''  
     '                                                          ''''####''''         
             ,#######,   #######,   ,#######,      ##                                
            ,#'     '#,  ##    ##  ,#'     '#,    #''#        ,####,    ,#,          
            ##       ##  ##   ,#'  ##            #'  '#       #'       ,# #          
            ##       ##  #######   ##           ,######,      #####,      #          
            '#,     ,#'  ##    ##  '#,     ,#' ,#      #,     #,   #      #          
             '#######'   ##     ##  '#######'  #'      '#     '####' #    #          



                #########################################################
                #                        -***-                          #
                #          Department of theory and spectroscopy        #
                #                                                       #
                #                      Frank Neese                      #
                #                                                       #
                #     Directorship, Architecture, Infrastructure        #
                #                    SHARK, DRIVERS                     #
                #        Core code/Algorithms in most modules           #
                #                                                       #
                #        Max Planck Institute fuer Kohlenforschung      #
                #                Kaiser Wilhelm Platz 1                 #
                #                 D-45470 Muelheim/Ruhr                 #
                #                      Germany                          #
                #                                                       #
                #                  All rights reserved                  #
                #                        -***-                          #
                #########################################################


                         Program Version 6.1.1  -  RELEASE   -
                                (GIT: $487d211cc3$)
                          ($2025-11-21 10:33:24 +0100$)


 With contributions from (in alphabetic order):
[Max-Planck-Institut fuer Kohlenforschung]                               
  Daniel Aravena         : Magnetic Suceptibility                        
  Michael Atanasov       : Ab Initio Ligand Field Theory (pilot matlab implementation)
  Alexander A. Auer      : GIAO ZORA, VPT2 properties, NMR spectrum      
  Ute Becker             : All parallelization in ORCA, NUMFREQ, NUMCALC 
  Giovanni Bistoni       : ED, misc. LED, open-shell LED, HFLD           
  Dmytro Bykov           : pre 5.0 version of the SCF Hessian            
  Marcos Casanova-Páez   : Triplet and SCS-CIS(D). UHF-(DLPNO)-IP/EA/STEOM-CCSD. UHF-CVS-IP/STEOM-CCSD   
  Vijay G. Chilkuri      : MRCI spin determinant printing, contributions to CSF-ICE 
  Pauline Colinet        : FMM embedding                                 
  Dipayan Datta          : RHF DLPNO-CCSD density                        
  Achintya Kumar Dutta   : EOM-CC, STEOM-CC                              
  Nicolas Foglia         : Exact transition moments, OPA infrastructure, MCD improvements    
  Dmitry Ganyushin       : Spin-Orbit,Spin-Spin,Magnetic field MRCI      
  Miquel Garcia-Rates    : C-PCM and meta-GGA Hessian, CCSD/C-PCM, Gaussian charge scheme 
  Tiago L. C. Gouveia    : GS-ROHF, GS-ROCIS                             
  Yang Guo               : DLPNO-NEVPT2, F12-NEVPT2, CIM, IAO-localization        
  Andreas Hansen         : Spin unrestricted coupled pair/coupled cluster methods 
  Ingolf Harden          : AUTO-CI MPn and infrastructure                
  Benjamin Helmich-Paris : MC-RPA, TRAH-(SCF,CASSCF), AVAS, COSX integrals, SCF dyn. polar., MC-PDFT, srDFT 
  Lee Huntington         : MR-EOM, pCC                                   
  Robert Izsak           : Overlap fitted RIJCOSX, COSX-SCS-MP3, EOM     
  Riya Kayal             : Wick's Theorem for AUTO-CI, AUTO-CI UHF-CCSDT 
  Emily Kempfer          : AUTO-CI RHF CISDT and CCSDT, approximate NEVPT4
  Christian Kollmar      : KDIIS, OOCD, Brueckner-CCSD(T), CCSD density, CASPT2, CASPT2-K, improved NEVPT2 
  Axel Koslowski         : Symmetry handling                             
  Simone Kossmann        : meta-GGA functionals, TD-DFT gradient, OOMP2, (MP2 Hessian; deprecated post 5.0) 
  Lucas Lang             : DCDCAS, Hyperfine gauge corrections, ICE-SOC+SSC
  Marvin Lechner         : AUTO-CI (C++ implementation), FIC-MRCC        
  Spencer Leger          : CASSCF response                               
  Dagmar Lenk            : GEPOL surface, SMD, ORCA-2-JSON               
  Dimitrios Liakos       : Extrapolation schemes; Compound Job, Property file
  Dimitrios Manganas     : Further ROCIS development; embedding schemes. LFT, Crystal Embedding 
  Dimitrios Pantazis     : SARC Basis sets                               
  Anastasios Papadopoulos: AUTO-CI, single reference methods and gradients 
  Taras Petrenko         : pre 6.0 DFT Hessian and TD-DFT gradient,  ECA, NRVS 
  Petra Pikulova         : Analytic Raman intensities                    
  Peter Pinski           : DLPNO-MP2, DLPNO-MP2 Gradient                 
  Shashank Vittal Rao    : ES-AILFT, MagRelax                            
  Christoph Reimann      : Effective Core Potentials                     
  Marius Retegan         : Local ZFS, SOC                                
  Christoph Riplinger    : Optimizer, TS searches, QM/MM, DLPNO-CCSD(T), (RO)-DLPNO pert. Triples 
  Michael Roemelt        : Original ROCIS implementation, recursive CI coupling coefficients
  Masaaki Saitow         : Open-shell DLPNO-CCSD energy and density      
  Barbara Sandhoefer     : DKH picture change effects                    
  Yorick L. A. Schmerwitz: GMF and freeze-and-release deltaSCF, NEB S-IDPP initial path                    
  Kantharuban Sivalingam : CASSCF convergence/infrastructure, NEVPT2, NEVPT3, NEVPT4(SD), FIC-MRCI and CEPA variants
  Bernardo de Souza      : ESD, SOC TD-DFT                               
  Georgi L. Stoychev     : AutoAux, RI-MP2 NMR, DLPNO-MP2 response, X2C  
  Van Anh Tran           : RI-MP2 g-tensors                              
  Willem Van den Heuvel  : Paramagnetic NMR                              
  Zikuan Wang            : NOTCH, Electric field optimization            
  Frank Wennmohs         : Technical directorship and infrastructure     
  Hang Xu                : AUTO-CI-Response properties                   
                                                                         
[FACCTs GmbH]                                                            
  Markus Bursch, Nicolas Foglia, Miquel Garcia-Rates, Ingolf Harden, Hagen Neugebauer, Anastasios Papadopoulos, 
  Christoph Riplinger, Bernardo de Souza, Georgi L. Stoychev                                                    
                                                                 
  APM, various basis sets, CI-OPT, improved COSX, DLPNO-Multilevel,           
  DOCKER, DRACO, updates on ESD, Fragmentator, GOAT, IRC, LR-CPCM, L-BFGS, MBIS, meta-GGA TD-DFT gradient, ML-optimized integration grids, 
  MM, NACMEs, nearIR, NEB, NEB-TS, NL-DFT gradient (VV10), 2- and 3-layer-ONIOM, interface openCOSMO-RS, QMMM,   
  Crystal-QMMM, RESP, rigid body optimization, SF, symmetry and pop. for TD-DFT, various functionals, SOLVATOR                                   
                                                                         
[Other institutions]                                                     
  V. Asgeirsson          : NEB                                           
  Christoph Bannwarth    : sTDA-DFT, sTD-DFT, PBEh-3c, B97-3c, D3        
  Giovanni Bistoni       : ETS/NOCV, ADLD/ADEX, COVALED                  
  Martin Brehm           : Molecular dynamics                            
  Ronald Cardenas        : ETS/NOCV                                      
  Martina Colucci        : COVALED                                       
  Sebastian Ehlert       : rSCAN, r2SCAN, r2SCAN-3c, D4, dhf basis sets  
  Marvin Friede          : D4 for Fr, Ra, Ac-Lr                          
  Lars Goerigk           : TD-DFT with DH, B97 family of functionals     
  Stefan Grimme          : VdW corrections, initial TS optimization, DFT functionals, gCP, sTDA/sTD-DF 
  Waldemar Hujo          : DFT-NL                                        
  H. Jonsson             : NEB                                           
  Holger Kruse           : gCP                                           
  Marcel Mueller         : wB97X-3c, vDZP basis set                      
  Hagen Neugebauer       : wr2SCAN, Native XTB                           
  Gianluca Regni         : ADLD/ADEX                                     
  Tobias Risthaus        : pre 6.0 range-separated hybrid DFT and stability analysis
  Lukas Wittmann         : regularized MP2, r2SCAN double-hybrids, wr2SCAN        
                                                                         
We gratefully acknowledge several colleagues who have allowed us to      
interface, adapt or use parts of their codes:                            
  Ed Valeev, F. Pavosevic, A. Kumar             : LibInt (2-el integral package), F12 methods 
  Garnet Chan, S. Sharma, J. Yang, R. Olivares  : DMRG                   
  Ulf Ekstrom                                   : XCFun DFT Library      
  Mihaly Kallay                                 : mrcc  (arbitrary order and MRCC methods)
  Frank Weinhold                                : gennbo (NPA and NBO analysis)           
  Simon Mueller                                 : openCOSMO-RS                            
  Christopher J. Cramer and Donald G. Truhlar   : smd solvation model                     
  S Lehtola, MJT Oliveira, MAL Marques          : LibXC Library                           
  Liviu Ungur et al                             : ANISO software                          


 Your calculation uses the libint2 library for the computation of 2-el integrals
 For citations please refer to: http://libint.valeyev.net

 Your ORCA version has been built with support for libXC version: 7.0.0
 For citations please refer to: https://libxc.gitlab.io

 This ORCA versions uses:
   CBLAS   interface :  Fast vector & matrix operations
   LAPACKE interface :  Fast linear algebra routines
   SCALAPACK package :  Parallel linear algebra routines
   Shared memory     :  Shared parallel matrices


  ***********************************
  * Starting time: Wed Jun 24 09:38:21 2026
  * Host name:     CHEM9LYY31VAWS
  * Process ID:    68839
  * Working dir.:  /Users/jfoley19/Code/nbr_data/DLPNO_CCSDpT/PARA
  ***********************************

NOTE: MaxCore=8000 MB was set to SCF,MP2,MDCI,CIPSI,MRCI,RASCI and CIS
      => If you want to overwrite this, your respective input block should be placed after the MaxCore statement
================================================================================

----- Orbital basis set information -----
Your calculation utilizes the basis: def2-TZVP
   F. Weigend and R. Ahlrichs, Phys. Chem. Chem. Phys. 7, 3297 (2005).

----- AuxJ basis set information -----
Your calculation utilizes the auxiliary basis: def2/J
   H-Rn: F. Weigend, Phys. Chem. Chem. Phys. 8, 1057 (2006).
   Fr-Lr: K. Eichkorn, F. Weigend, O. Treutler, R. Ahlrichs; Theor. Chem. Acc. 97, 119 (1997).

----- AuxC basis set information -----
Your calculation utilizes the auxiliary basis: def2-TZVP/C
  H-La, Hf-Rn : A. Hellweg, C. Hattig, S. Hofener and W. Klopper, Theor. Chem. Acc. 117, 587 (2007).
        Ce-Lu : J. Chmela and M. E. Harding, Mol. Phys. (2018).

================================================================================
                                        WARNINGS
                       Please study these warnings very carefully!
================================================================================


WARNING: Post HF methods need fully converged wavefunctions
  ===> : Setting SCFConvForced true
         You can overwrite this default with %scf ConvForced false 


WARNING: MDCI localization with Augmented Hessian Foster-Boys
  ===> : Switching off randomization!

================================================================================
                                       INPUT FILE
================================================================================
NAME = input.inp
|  1> ! DLPNO-CCSD(T) def2-TZVP def2/J def2-TZVP/C RIJCOSX TightSCF TightPNO
|  2> 
|  3> %maxcore 8000
|  4> 
|  5> %scf
|  6>   MaxIter 300
|  7> end
|  8> 
|  9> %scf
| 10>   MaxIter 300
| 11> end
| 12> 
| 13> * xyz 1 1
| 14> C         -0.511618296797     1.244386024531     0.732140048697
| 15> C          0.856500593203     1.251903714531     0.717948218697
| 16> C          1.524118723203     0.024661924531     0.713927788697
| 17> H         -1.071804396797     2.172682314531     0.745925708697
| 18> H          1.436128963203     2.163921874531     0.712099008697
| 19> N          3.008539583203     0.046097104531     0.698823798697
| 20> O          3.575097303203    -1.082768165469     0.699174708697
| 21> O          3.542114363203     1.190870854531     0.689202018697
| 22> C         -0.475464946797    -1.253402765469     0.742118638697
| 23> H         -1.008574426797    -2.197377955469     0.762945788697
| 24> C          0.892227703203    -1.221407805469     0.728065818697
| 25> H          1.498048423203    -2.116244695469     0.729653208697
| 26> C         -1.267906576797    -0.015841805469     0.712127418697
| 27> H         -2.116520796797    -0.025293215469     1.403161498697
| 28> Br        -2.114966986797    -0.034666925469    -1.121874081303
| 29> *
| 30> 
| 31>                          ****END OF INPUT****
================================================================================

                       ****************************
                       * Single Point Calculation *
                       ****************************

---------------------------------
CARTESIAN COORDINATES (ANGSTROEM)
---------------------------------
  C     -0.511618    1.244386    0.732140
  C      0.856501    1.251904    0.717948
  C      1.524119    0.024662    0.713928
  H     -1.071804    2.172682    0.745926
  H      1.436129    2.163922    0.712099
  N      3.008540    0.046097    0.698824
  O      3.575097   -1.082768    0.699175
  O      3.542114    1.190871    0.689202
  C     -0.475465   -1.253403    0.742119
  H     -1.008574   -2.197378    0.762946
  C      0.892228   -1.221408    0.728066
  H      1.498048   -2.116245    0.729653
  C     -1.267907   -0.015842    0.712127
  H     -2.116521   -0.025293    1.403161
  Br    -2.114967   -0.034667   -1.121874

----------------------------
CARTESIAN COORDINATES (A.U.)
----------------------------
  NO LB      ZA    FRAG     MASS         X           Y           Z
   0 C     6.0000    0    12.011   -0.966818    2.351549    1.383544
   1 C     6.0000    0    12.011    1.618552    2.365755    1.356726
   2 C     6.0000    0    12.011    2.880167    0.046604    1.349128
   3 H     1.0000    0     1.008   -2.025417    4.105775    1.409595
   4 H     1.0000    0     1.008    2.713890    4.089220    1.345672
   5 N     7.0000    0    14.007    5.685316    0.087111    1.320586
   6 O     8.0000    0    15.999    6.755955   -2.046135    1.321249
   7 O     8.0000    0    15.999    6.693626    2.250420    1.302403
   8 C     6.0000    0    12.011   -0.898499   -2.368588    1.402401
   9 H     1.0000    0     1.008   -1.905929   -4.152443    1.441759
  10 C     6.0000    0    12.011    1.686066   -2.308126    1.375845
  11 H     1.0000    0     1.008    2.830901   -3.999123    1.378845
  12 C     6.0000    0    12.011   -2.395996   -0.029937    1.345726
  13 H     1.0000    0     1.008   -3.999645   -0.047797    2.651591
  14 Br   35.0000    0    79.900   -3.996708   -0.065511   -2.120035

--------------------------------
INTERNAL COORDINATES (ANGSTROEM)
--------------------------------
 C      0   0   0     0.000000000000     0.00000000     0.00000000
 C      1   0   0     1.368213148920     0.00000000     0.00000000
 C      2   1   0     1.397087163524   118.23146708     0.00000000
 H      1   2   3     1.084311999879   120.79850662   179.37423524
 H      2   1   3     1.080638878042   122.75391974   180.14551384
 N      3   2   1     1.484652446554   117.71905335   180.01419399
 O      6   3   2     1.263061586401   115.82235853   179.82025996
 O      6   3   2     1.263052478400   115.82004408   359.91716651
 C      3   2   1     2.373305485853    94.03690051   359.89210483
 H      9   3   2     1.084310217225   152.04122636   181.27862094
 C      9   3   2     1.368139007586    31.24337558   180.20053774
 H     11   9   3     1.080626820088   122.75559885   179.86333973
 C      9   3   2     1.469836841269    90.03325856     1.38298625
 H     13   9   3     1.094423831639   113.44633810   223.52408607
 Br    13   9   3     2.020254247696   103.69354554   110.94793816

---------------------------
INTERNAL COORDINATES (A.U.)
---------------------------
 C      0   0   0     0.000000000000     0.00000000     0.00000000
 C      1   0   0     2.585548144288     0.00000000     0.00000000
 C      2   1   0     2.640112124278   118.23146708     0.00000000
 H      1   2   3     2.049052723497   120.79850662   179.37423524
 H      2   1   3     2.042111529168   122.75391974   180.14551384
 N      3   2   1     2.805586528043   117.71905335   180.01419399
 O      6   3   2     2.386840488574   115.82235853   179.82025996
 O      6   3   2     2.386823276946   115.82004408   359.91716651
 C      3   2   1     4.484897400395    94.03690051   359.89210483
 H      9   3   2     2.049049354768   152.04122636   181.27862094
 C      9   3   2     2.585408037473    31.24337558   180.20053774
 H     11   9   3     2.042088742936   122.75559885   179.86333973
 C      9   3   2     2.777589091545    90.03325856     1.38298625
 H     13   9   3     2.068161316234   113.44633810   223.52408607
 Br    13   9   3     3.817727249037   103.69354554   110.94793816

---------------------
BASIS SET INFORMATION
---------------------
There are 5 groups of distinct atoms

 Group   1 Type C   : 11s6p2d1f contracted to 5s3p2d1f pattern {62111/411/11/1}
 Group   2 Type H   : 5s1p contracted to 3s1p pattern {311/1}
 Group   3 Type N   : 11s6p2d1f contracted to 5s3p2d1f pattern {62111/411/11/1}
 Group   4 Type O   : 11s6p2d1f contracted to 5s3p2d1f pattern {62111/411/11/1}
 Group   5 Type Br  : 17s13p8d1f contracted to 6s5p4d1f pattern {842111/64111/5111/1}

Atom   0C    basis set group =>   1
Atom   1C    basis set group =>   1
Atom   2C    basis set group =>   1
Atom   3H    basis set group =>   2
Atom   4H    basis set group =>   2
Atom   5N    basis set group =>   3
Atom   6O    basis set group =>   4
Atom   7O    basis set group =>   4
Atom   8C    basis set group =>   1
Atom   9H    basis set group =>   2
Atom  10C    basis set group =>   1
Atom  11H    basis set group =>   2
Atom  12C    basis set group =>   1
Atom  13H    basis set group =>   2
Atom  14Br   basis set group =>   5
---------------------------------
AUXILIARY/J BASIS SET INFORMATION
---------------------------------
There are 5 groups of distinct atoms

 Group   1 Type C   : 12s5p4d2f1g contracted to 6s4p3d1f1g pattern {711111/2111/211/2/1}
 Group   2 Type H   : 5s2p1d contracted to 3s1p1d pattern {311/2/1}
 Group   3 Type N   : 12s5p4d2f1g contracted to 6s4p3d1f1g pattern {711111/2111/211/2/1}
 Group   4 Type O   : 12s5p4d2f1g contracted to 6s4p3d1f1g pattern {711111/2111/211/2/1}
 Group   5 Type Br  : 19s5p5d3f1g contracted to 8s4p3d2f1g pattern {121111111/2111/311/21/1}

Atom   0C    basis set group =>   1
Atom   1C    basis set group =>   1
Atom   2C    basis set group =>   1
Atom   3H    basis set group =>   2
Atom   4H    basis set group =>   2
Atom   5N    basis set group =>   3
Atom   6O    basis set group =>   4
Atom   7O    basis set group =>   4
Atom   8C    basis set group =>   1
Atom   9H    basis set group =>   2
Atom  10C    basis set group =>   1
Atom  11H    basis set group =>   2
Atom  12C    basis set group =>   1
Atom  13H    basis set group =>   2
Atom  14Br   basis set group =>   5
---------------------------------
AUXILIARY/C BASIS SET INFORMATION
---------------------------------
There are 5 groups of distinct atoms

 Group   1 Type C   : 8s6p5d3f1g contracted to 8s6p4d3f1g pattern {11111111/111111/2111/111/1}
 Group   2 Type H   : 4s3p2d contracted to 4s2p1d pattern {1111/21/2}
 Group   3 Type N   : 8s6p5d3f1g contracted to 8s6p4d3f1g pattern {11111111/111111/2111/111/1}
 Group   4 Type O   : 8s6p5d3f1g contracted to 8s6p4d3f1g pattern {11111111/111111/2111/111/1}
 Group   5 Type Br  : 10s9p8d6f4g1h contracted to 10s9p8d5f4g1h pattern {1111111111/111111111/11111111/21111/1111/1}

Atom   0C    basis set group =>   1
Atom   1C    basis set group =>   1
Atom   2C    basis set group =>   1
Atom   3H    basis set group =>   2
Atom   4H    basis set group =>   2
Atom   5N    basis set group =>   3
Atom   6O    basis set group =>   4
Atom   7O    basis set group =>   4
Atom   8C    basis set group =>   1
Atom   9H    basis set group =>   2
Atom  10C    basis set group =>   1
Atom  11H    basis set group =>   2
Atom  12C    basis set group =>   1
Atom  13H    basis set group =>   2
Atom  14Br   basis set group =>   5
------------------------------------------------------------------------------
                             ORCA STARTUP CALCULATIONS
                           -- RI-GTO INTEGRALS CHOSEN --
------------------------------------------------------------------------------
------------------------------------------------------------------------------
                   ___                                                        
                  /   \      - P O W E R E D   B Y -                         
                 /     \                                                     
                 |  |  |   _    _      __       _____    __    __             
                 |  |  |  | |  | |    /  \     |  _  \  |  |  /  |          
                  \  \/   | |  | |   /    \    | | | |  |  | /  /          
                 / \  \   | |__| |  /  /\  \   | |_| |  |  |/  /          
                |  |  |   |  __  | /  /__\  \  |    /   |      \           
                |  |  |   | |  | | |   __   |  |    \   |  |\   \          
                \     /   | |  | | |  |  |  |  | |\  \  |  | \   \       
                 \___/    |_|  |_| |__|  |__|  |_| \__\ |__|  \__/        
                                                                              
                      - O R C A' S   B I G   F R I E N D -                    
                                      &                                       
                       - I N T E G R A L  F E E D E R -                       
                                                                              
 v1 FN, 2020, v2 2021, v3 2022-2024                                           
------------------------------------------------------------------------------


----------------------
SHARK INTEGRAL PACKAGE
----------------------

Number of atoms                             ...     15
Number of basis functions                   ...    357
Number of shells                            ...    135
Maximum angular momentum                    ...      3
Integral batch strategy                     ... SHARK/LIBINT Hybrid
RI-J (if used) integral strategy            ... SPLIT-RIJ (Revised 2003 algorithm where possible)
Printlevel                                  ...      1
Contraction scheme used                     ... SEGMENTED contraction
Prescreening option                         ... SCHWARTZ
   Thresh                                   ... 2.500e-11
   Tcut                                     ... 2.500e-12
   Tpresel                                  ... 2.500e-12 
Coulomb Range Separation                    ... NOT USED
Exchange Range Separation                   ... NOT USED
Multipole approximations                    ... NOT USED
Finite Nucleus Model                        ... NOT USED
CABS basis                                  ... NOT available
Auxiliary Coulomb fitting basis             ... AVAILABLE
   # of basis functions in Aux-J            ...    554
   # of shells in Aux-J                     ...    178
   Maximum angular momentum in Aux-J        ...      4
Auxiliary J/K fitting basis                 ... NOT available
Auxiliary Correlation fitting basis         ... AVAILABLE
   # of basis functions in Aux-C            ...    918
   # of shells in Aux-C                     ...    270
   Maximum angular momentum in Aux-C        ...      5
Auxiliary 'external' fitting basis          ... NOT available

Checking pre-screening integrals            ... done (  0.0 sec) Dimension = 135
   => SHARK Basis and OBASIS are compatible. Storing Pre-screening
Shell pair information
Shell pair cut-off parameter TPreSel        ...   2.5e-12
Total number of shell pairs                 ...      9180
Shell pairs after pre-screening             ...      7973
Total number of primitive shell pairs       ...     31404
Primitive shell pairs kept                  ...     19236
          la=0 lb=0:   1816 shell pairs
          la=1 lb=0:   2161 shell pairs
          la=1 lb=1:    654 shell pairs
          la=2 lb=0:   1246 shell pairs
          la=2 lb=1:    737 shell pairs
          la=2 lb=2:    222 shell pairs
          la=3 lb=0:    559 shell pairs
          la=3 lb=1:    336 shell pairs
          la=3 lb=2:    194 shell pairs
          la=3 lb=3:     48 shell pairs

Checking whether 4 symmetric matrices of dimension 357 fit in memory
:Max Core in MB      =   8000.00
 MB in use           =     14.34
 MB left             =   7985.66
 MB needed           =      1.95
 Data fit in memory  = YES
Calculating RI/J V-Matrix + Cholesky decomp.... done (  0.0 sec)
Calculating RI/C V-Matrix + Cholesky decomp.... done (  0.0 sec)
Calculating Nuclear repulsion               ... done (  0.0 sec) ENN=    731.022766781464 Eh

Diagonalization of the overlap matrix:
Smallest eigenvalue                        ... 1.630e-05
Time for diagonalization                   ...    0.009 sec
Threshold for overlap eigenvalues          ... 1.000e-07
Number of eigenvalues below threshold      ... 0
Time for construction of square roots      ...    0.001 sec
Total time needed                          ...    0.011 sec

-------------------
DFT GRID GENERATION
-------------------

General Integration Accuracy     IntAcc      ... 4.388
Radial Grid Type                 RadialGrid  ... OptM3 with GC (2021)
Angular Grid (max. ang.)         AngularGrid ... 4 (Lebedev-302)
Angular grid pruning method      GridPruning ... 4 (adaptive)
Weight generation scheme         WeightScheme... mBecke (2022)
Basis function cutoff            BFCut       ... 1.0000e-11
Integration weight cutoff        WCut        ... 1.0000e-14
Partially contracted basis set               ... off
Rotationally invariant grid construction     ... off
Angular grids for H and He will be reduced by one unit
Core-polarized basis detected: some atoms will have their core
                               angular grid increased.

Total number of grid points                  ...    81542
Total number of batches                      ...     1281
Average number of points per batch           ...       63
Average number of grid points per atom       ...     5436

--------------------
COSX GRID GENERATION
--------------------

GRIDX 1
-------
General Integration Accuracy     IntAcc      ... 3.816
Radial Grid Type                 RadialGrid  ... OptM3 with GC (2021)
Angular Grid (max. ang.)         AngularGrid ... 1 (Lebedev-50)
Angular grid pruning method      GridPruning ... 4 (adaptive)
Weight generation scheme         WeightScheme... mBecke (2022)
Basis function cutoff            BFCut       ... 1.0000e-11
Integration weight cutoff        WCut        ... 1.0000e-14
Partially contracted basis set               ... on
Rotationally invariant grid construction     ... off
Angular grids for H and He will be reduced by one unit
Core-polarized basis detected: some atoms will have their core
                               angular grid increased.

Total number of grid points                  ...    15059
Total number of batches                      ...      125
Average number of points per batch           ...      120
Average number of grid points per atom       ...     1004
UseSFitting                                  ... on

GRIDX 2
-------
General Integration Accuracy     IntAcc      ... 4.020
Radial Grid Type                 RadialGrid  ... OptM3 with GC (2021)
Angular Grid (max. ang.)         AngularGrid ... 2 (Lebedev-110)
Angular grid pruning method      GridPruning ... 4 (adaptive)
Weight generation scheme         WeightScheme... mBecke (2022)
Basis function cutoff            BFCut       ... 1.0000e-11
Integration weight cutoff        WCut        ... 1.0000e-14
Partially contracted basis set               ... on
Rotationally invariant grid construction     ... off
Angular grids for H and He will be reduced by one unit
Core-polarized basis detected: some atoms will have their core
                               angular grid increased.

Total number of grid points                  ...    26082
Total number of batches                      ...      210
Average number of points per batch           ...      124
Average number of grid points per atom       ...     1739
UseSFitting                                  ... on

GRIDX 3
-------
General Integration Accuracy     IntAcc      ... 4.338
Radial Grid Type                 RadialGrid  ... OptM3 with GC (2021)
Angular Grid (max. ang.)         AngularGrid ... 3 (Lebedev-194)
Angular grid pruning method      GridPruning ... 4 (adaptive)
Weight generation scheme         WeightScheme... mBecke (2022)
Basis function cutoff            BFCut       ... 1.0000e-11
Integration weight cutoff        WCut        ... 1.0000e-14
Partially contracted basis set               ... on
Rotationally invariant grid construction     ... off
Angular grids for H and He will be reduced by one unit
Core-polarized basis detected: some atoms will have their core
                               angular grid increased.

Total number of grid points                  ...    50210
Total number of batches                      ...      401
Average number of points per batch           ...      125
Average number of grid points per atom       ...     3347
UseSFitting                                  ... on
Grids setup in   1.0 sec
Initializing property integral containers    ... done (  0.0 sec)

SHARK setup successfully completed in   1.2 seconds

Maximum memory used throughout the entire STARTUP-calculation: 59.2 MB
-------------------------------------------------------------------------------
                                 ORCA GUESS
                   Start orbitals & Density for SCF / CASSCF
-------------------------------------------------------------------------------

------------
SCF SETTINGS
------------
Hamiltonian:
 Ab initio Hamiltonian  Method          .... Hartree-Fock(GTOs)
 RI-approximation to the Coulomb term is turned on
   Number of AuxJ basis functions       .... 554
   RIJ-COSX (HFX calculated with COS-X)).... on


General Settings:
 Integral files         IntName         .... input
 Hartree-Fock type      HFTyp           .... RHF
 Total Charge           Charge          ....    1
 Multiplicity           Mult            ....    1
 Number of Electrons    NEL             ....   98
 Basis Dimension        Dim             ....  357
 Nuclear Repulsion      ENuc            ....    731.0227667815 Eh

Convergence Acceleration:
 AO-DIIS                CNVDIIS         .... on
   Start iteration      DIISMaxIt       ....    12
   Startup error        DIISStart       ....  0.200000
   # of expansion vecs  DIISMaxEq       ....     5
   Bias factor          DIISBfac        ....   1.050
   Max. coefficient     DIISMaxC        ....  10.000
 MO-DIIS                CNVKDIIS        .... off
 Trust-Rad. Augm. Hess. CNVTRAH         .... auto
   Auto Start mean grad. ratio tolernc. ....  1.125000
   Auto Start start iteration           ....    50
   Auto Start num. interpolation iter.  ....    10
   Max. Number of Micro iterations      ....    24
   Max. Number of Macro iterations      .... Maxiter - #DIIS iter
   Number of Davidson start vectors     ....     2
   Converg. threshold    (grad. norm)   ....   1.000e-05
   Grad. Scal. Fac. for Micro threshold ....   0.100
   Minimum threshold for Micro iter.    ....   1.000e-02
   NR start threshold (gradient norm)   ....   1.000e-04
   Initial trust radius                 ....   0.400
   Minimum AH scaling param. (alpha)    ....   1.000
   Maximum AH scaling param. (alpha)    .... 1000.000
   Quad. conv. algorithm                .... NR
   White noise on init. David. guess    .... on
   Maximum white noise                  ....   0.010
   Pseudo random numbers                .... off
   Inactive MOs                         .... canonical
   Orbital update algorithm             .... Taylor
   Preconditioner                       .... Diag
   Full preconditioner red. dimension   ....   250
 SOSCF                 CNVSOSCF           .... on
   Start iteration     SOSCFMaxIt         ....   150
   Startup grad/error  SOSCFStart         ....  0.003300
   Hessian update      SOSCFHessUp        .... L-BFGS
   Autom. constraints  SOSCFAutoConstrain .... off
 Level Shifting         CNVShift        .... on
   Level shift para.    LevelShift      ....    0.2500
   Turn off err/grad.   ShiftErr        ....    0.0010
 Zerner damping         CNVZerner       .... off
 Static damping         CNVDamp         .... on
   Fraction old density DampFac         ....    0.7000
   Max. Damping (<1)    DampMax         ....    0.9800
   Min. Damping (>=0)   DampMin         ....    0.0000
   Turn off err/grad.   DampErr         ....    0.1000

SCF Procedure:
 Maximum # iterations   MaxIter         ....   300
 SCF integral mode      SCFMode         .... Direct
   Integral package                     .... SHARK and LIBINT hybrid scheme
 Reset frequency        DirectResetFreq ....    20
 Integral Threshold     Thresh          ....  2.500e-11 Eh
 Primitive CutOff       TCut            ....  2.500e-12 Eh

Convergence Tolerance:
 Convergence Check Mode ConvCheckMode   .... Total+1el-Energy
 Convergence forced     ConvForced      .... 1
 Energy Change          TolE            ....  1.000e-08 Eh
 1-El. energy change                    ....  1.000e-05 Eh
 Orbital Gradient       TolG            ....  1.000e-05
 Orbital Rotation angle TolX            ....  1.000e-05
 DIIS Error             TolErr          ....  5.000e-07

------------------------------
INITIAL GUESS: MODEL POTENTIAL
------------------------------
Loading Hartree-Fock densities                     ... done
Calculating cut-offs                               ... done
Initializing the effective Hamiltonian             ... done
Setting up the integral package (SHARK)            ... done
Starting the Coulomb interaction                   ... done (   0.2 sec)
Making the grid                                    ... done (   0.1 sec)
Mapping shells                                     ... done
Starting the XC term evaluation                    ... done (   0.2 sec)
Transforming the Hamiltonian                       ... done (   0.0 sec)
Diagonalizing the Hamiltonian                      ... done (   0.0 sec)
Back transforming the eigenvectors                 ... done (   0.0 sec)
Now organizing SCF variables                       ... done
                      ------------------
                      INITIAL GUESS DONE (   0.5 sec)
                      ------------------
             **** ENERGY FILE WAS UPDATED (input.en.tmp) ****
Finished Guess after   0.6 sec
Maximum memory used throughout the entire GUESS-calculation: 36.2 MB

-------------------------------------------------------------------------------------------
                                      ORCA LEAN-SCF
                              memory conserving SCF solver
-------------------------------------------------------------------------------------------

----------------------------------------D-I-I-S--------------------------------------------
Iteration    Energy (Eh)           Delta-E    RMSDP     MaxDP     DIISErr   Damp  Time(sec)
-------------------------------------------------------------------------------------------
               ***  Starting incremental Fock matrix formation  ***
    1    -3006.0650318319758298     0.00e+00  1.13e-03  3.19e-02  3.06e-01  0.700   9.8
    2    -3006.1827192880314215    -1.18e-01  8.73e-04  2.21e-02  2.20e-01  0.700   5.2
                               ***Turning on AO-DIIS***
    3    -3006.2513896472837587    -6.87e-02  6.43e-04  2.74e-02  1.63e-01  0.700   5.1
    4    -3006.2964600333398266    -4.51e-02  5.16e-04  2.42e-02  1.14e-01  0.700   5.0
    5    -3006.3282088393966660    -3.17e-02  4.04e-04  1.88e-02  8.01e-02  0.700   5.0
    6    -3006.3509267723215999    -2.27e-02  1.03e-03  4.65e-02  5.60e-02  0.000   4.9
                              *** Initializing SOSCF ***
---------------------------------------S-O-S-C-F--------------------------------------
Iteration    Energy (Eh)           Delta-E    RMSDP     MaxDP     MaxGrad    Time(sec)
--------------------------------------------------------------------------------------
    7    -3006.4058799551639822    -5.50e-02  1.12e-04  5.24e-03  3.06e-03     5.1
               *** Restarting incremental Fock matrix formation ***
    8    -3006.4061019541636597    -2.22e-04  1.05e-04  2.90e-03  1.89e-03     9.7
    9    -3006.4062067790696346    -1.05e-04  1.34e-04  5.23e-03  1.07e-03     8.1
   10    -3006.4062544145695028    -4.76e-05  3.97e-05  1.18e-03  7.54e-04     8.1
   11    -3006.4062620732088362    -7.66e-06  1.15e-05  3.19e-04  1.29e-04     7.6
   12    -3006.4062630885937324    -1.02e-06  4.62e-06  1.45e-04  5.13e-05     7.1
   13    -3006.4062632742948153    -1.86e-07  1.58e-06  6.46e-05  2.71e-05     6.7
   14    -3006.4062632825412038    -8.25e-09  4.20e-07  9.35e-06  9.03e-06     6.1
                 **** Energy Check signals convergence ****

               *****************************************************
               *                     SUCCESS                       *
               *           SCF CONVERGED AFTER  14 CYCLES          *
               *****************************************************

Recomputing exchange energy using gridx3       ... done (   19.205 sec)
Old exchange energy                            :   -145.178555702 Eh
New exchange energy                            :   -145.178374736 Eh
Exchange energy change after final integration :      0.000180966 Eh
Total energy after final integration           :  -3006.406082305 Eh
             **** ENERGY FILE WAS UPDATED (input.en.tmp) ****

----------------
TOTAL SCF ENERGY
----------------

Total Energy       :      -3006.40608230511634 Eh          -81808.46856 eV

Components:
Nuclear Repulsion  :        731.02276678146370 Eh           19892.14078 eV
Electronic Energy  :      -3737.42903005287235 Eh         -101700.61427 eV
One Electron Energy:      -5608.97368612382343 Eh         -152627.93345 eV
Two Electron Energy:       1871.54465607095108 Eh           50927.31919 eV

Virial components:
Potential Energy   :      -6011.80453815779401 Eh         -163589.51821 eV
Kinetic Energy     :       3005.39845585267722 Eh           81781.04965 eV
Virial Ratio       :          2.00033527216682

---------------
SCF CONVERGENCE
---------------

  Last Energy change         ...    8.2464e-09  Tolerance :   1.0000e-08
  Last MAX-Density change    ...    9.3527e-06  Tolerance :   1.0000e-07
  Last RMS-Density change    ...    4.2031e-07  Tolerance :   5.0000e-09
  Last DIIS Error            ...    3.0577e-03  Tolerance :   5.0000e-07
  Last Orbital Gradient      ...    9.0316e-06  Tolerance :   1.0000e-05
  Last Orbital Rotation      ...    1.5670e-05  Tolerance :   1.0000e-05


----------------
ORBITAL ENERGIES
----------------

  NO   OCC          E(Eh)            E(eV) 
   0   2.0000    -490.224589    -13339.6893 
   1   2.0000     -65.365454     -1778.6844 
   2   2.0000     -58.720376     -1597.8627 
   3   2.0000     -58.719245     -1597.8319 
   4   2.0000     -58.719182     -1597.8302 
   5   2.0000     -20.788703      -565.6894 
   6   2.0000     -20.788658      -565.6881 
   7   2.0000     -16.031860      -436.2491 
   8   2.0000     -11.572404      -314.9011 
   9   2.0000     -11.522461      -313.5421 
  10   2.0000     -11.516683      -313.3849 
  11   2.0000     -11.516563      -313.3816 
  12   2.0000     -11.463111      -311.9271 
  13   2.0000     -11.463089      -311.9265 
  14   2.0000     -10.037667      -273.1388 
  15   2.0000      -7.651159      -208.1986 
  16   2.0000      -7.641295      -207.9302 
  17   2.0000      -7.641288      -207.9300 
  18   2.0000      -3.394593       -92.3716 
  19   2.0000      -3.390005       -92.2467 
  20   2.0000      -3.389948       -92.2452 
  21   2.0000      -3.377227       -91.8990 
  22   2.0000      -3.377220       -91.8988 
  23   2.0000      -1.745497       -47.4974 
  24   2.0000      -1.554716       -42.3060 
  25   2.0000      -1.416603       -38.5477 
  26   2.0000      -1.315114       -35.7861 
  27   2.0000      -1.272716       -34.6324 
  28   2.0000      -1.206881       -32.8409 
  29   2.0000      -1.133829       -30.8531 
  30   2.0000      -1.076059       -29.2810 
  31   2.0000      -1.035848       -28.1869 
  32   2.0000      -0.965151       -26.2631 
  33   2.0000      -0.904890       -24.6233 
  34   2.0000      -0.901900       -24.5419 
  35   2.0000      -0.874049       -23.7841 
  36   2.0000      -0.862046       -23.4575 
  37   2.0000      -0.856233       -23.2993 
  38   2.0000      -0.836725       -22.7684 
  39   2.0000      -0.795915       -21.6579 
  40   2.0000      -0.735874       -20.0241 
  41   2.0000      -0.734042       -19.9743 
  42   2.0000      -0.673151       -18.3174 
  43   2.0000      -0.672778       -18.3072 
  44   2.0000      -0.655833       -17.8461 
  45   2.0000      -0.624027       -16.9806 
  46   2.0000      -0.612532       -16.6679 
  47   2.0000      -0.601818       -16.3763 
  48   2.0000      -0.565182       -15.3794 
  49   0.0000      -0.241748        -6.5783 
  50   0.0000      -0.104687        -2.8487 
  51   0.0000      -0.084893        -2.3101 
  52   0.0000      -0.048941        -1.3317 
  53   0.0000      -0.014201        -0.3864 
  54   0.0000       0.015092         0.4107 
  55   0.0000       0.015753         0.4287 
  56   0.0000       0.030530         0.8308 
  57   0.0000       0.060983         1.6594 
  58   0.0000       0.063070         1.7162 
  59   0.0000       0.078947         2.1482 
*Only the first 10 virtual orbitals were printed.

                    ********************************
                    * MULLIKEN POPULATION ANALYSIS *
                    ********************************

-----------------------
MULLIKEN ATOMIC CHARGES
-----------------------
   0 C :   -0.034740
   1 C :   -0.186120
   2 C :    0.182354
   3 H :    0.221623
   4 H :    0.239124
   5 N :    0.583259
   6 O :   -0.323947
   7 O :   -0.323823
   8 C :   -0.034581
   9 H :    0.221779
  10 C :   -0.186194
  11 H :    0.238951
  12 C :    0.136746
  13 H :    0.219007
  14 Br:    0.046564
Sum of atomic charges:    1.0000000

--------------------------------
MULLIKEN REDUCED ORBITAL CHARGES
--------------------------------
  0 C s       :     3.222026  s :     3.222026
      pz      :     0.660936  p :     2.694825
      px      :     0.996091
      py      :     1.037798
      dz2     :     0.006881  d :     0.109693
      dxz     :     0.029165
      dyz     :     0.007080
      dx2y2   :     0.030787
      dxy     :     0.035781
      f0      :     0.001243  f :     0.008197
      f+1     :     0.000779
      f-1     :     0.000867
      f+2     :     0.000860
      f-2     :     0.000539
      f+3     :     0.001922
      f-3     :     0.001988

  1 C s       :     3.148784  s :     3.148784
      pz      :     0.985804  p :     2.929871
      px      :     0.941947
      py      :     1.002119
      dz2     :     0.006779  d :     0.098904
      dxz     :     0.010354
      dyz     :     0.009875
      dx2y2   :     0.039206
      dxy     :     0.032690
      f0      :     0.001805  f :     0.008562
      f+1     :     0.001046
      f-1     :     0.000971
      f+2     :     0.000482
      f-2     :     0.000209
      f+3     :     0.001886
      f-3     :     0.002162

  2 C s       :     3.097767  s :     3.097767
      pz      :     0.696716  p :     2.543853
      px      :     0.794934
      py      :     1.052202
      dz2     :     0.006611  d :     0.163123
      dxz     :     0.021957
      dyz     :     0.035707
      dx2y2   :     0.050320
      dxy     :     0.048527
      f0      :     0.001931  f :     0.012904
      f+1     :     0.001408
      f-1     :     0.000978
      f+2     :     0.000808
      f-2     :     0.001250
      f+3     :     0.002846
      f-3     :     0.003683

  3 H s       :     0.754037  s :     0.754037
      pz      :     0.002586  p :     0.024340
      px      :     0.006976
      py      :     0.014778

  4 H s       :     0.735584  s :     0.735584
      pz      :     0.003887  p :     0.025293
      px      :     0.007911
      py      :     0.013495

  5 N s       :     3.219037  s :     3.219037
      pz      :     1.026440  p :     2.926428
      px      :     1.047558
      py      :     0.852429
      dz2     :     0.003870  d :     0.258126
      dxz     :     0.008191
      dyz     :     0.082100
      dx2y2   :     0.102643
      dxy     :     0.061321
      f0      :     0.001585  f :     0.013150
      f+1     :     0.000860
      f-1     :     0.001065
      f+2     :     0.000814
      f-2     :     0.001921
      f+3     :     0.002191
      f-3     :     0.004713

  6 O s       :     3.937274  s :     3.937274
      pz      :     1.413404  p :     4.335976
      px      :     1.727613
      py      :     1.194960
      dz2     :     0.005716  d :     0.047179
      dxz     :     0.003962
      dyz     :     0.010023
      dx2y2   :     0.011535
      dxy     :     0.015944
      f0      :     0.000280  f :     0.003516
      f+1     :     0.000133
      f-1     :     0.000490
      f+2     :     0.000207
      f-2     :     0.000432
      f+3     :     0.001347
      f-3     :     0.000627

  7 O s       :     3.937221  s :     3.937221
      pz      :     1.413360  p :     4.335909
      px      :     1.746009
      py      :     1.176540
      dz2     :     0.005715  d :     0.047178
      dxz     :     0.003606
      dyz     :     0.010380
      dx2y2   :     0.012281
      dxy     :     0.015195
      f0      :     0.000280  f :     0.003516
      f+1     :     0.000120
      f-1     :     0.000502
      f+2     :     0.000242
      f-2     :     0.000397
      f+3     :     0.001316
      f-3     :     0.000657

  8 C s       :     3.221017  s :     3.221017
      pz      :     0.661101  p :     2.695657
      px      :     0.993579
      py      :     1.040977
      dz2     :     0.006890  d :     0.109710
      dxz     :     0.029402
      dyz     :     0.006797
      dx2y2   :     0.030570
      dxy     :     0.036051
      f0      :     0.001242  f :     0.008197
      f+1     :     0.000789
      f-1     :     0.000861
      f+2     :     0.000823
      f-2     :     0.000576
      f+3     :     0.001927
      f-3     :     0.001981

  9 H s       :     0.753881  s :     0.753881
      pz      :     0.002589  p :     0.024340
      px      :     0.006592
      py      :     0.015160

 10 C s       :     3.149086  s :     3.149086
      pz      :     0.985914  p :     2.929637
      px      :     0.946843
      py      :     0.996880
      dz2     :     0.006771  d :     0.098907
      dxz     :     0.010424
      dyz     :     0.009794
      dx2y2   :     0.040202
      dxy     :     0.031716
      f0      :     0.001805  f :     0.008564
      f+1     :     0.001044
      f-1     :     0.000974
      f+2     :     0.000490
      f-2     :     0.000201
      f+3     :     0.001864
      f-3     :     0.002186

 11 H s       :     0.735758  s :     0.735758
      pz      :     0.003886  p :     0.025291
      px      :     0.008340
      py      :     0.013065

 12 C s       :     2.928319  s :     2.928319
      pz      :     0.893483  p :     2.778992
      px      :     0.972329
      py      :     0.913180
      dz2     :     0.026201  d :     0.148127
      dxz     :     0.024234
      dyz     :     0.027711
      dx2y2   :     0.031844
      dxy     :     0.038137
      f0      :     0.000818  f :     0.007816
      f+1     :     0.001205
      f-1     :     0.000971
      f+2     :     0.000305
      f-2     :     0.000998
      f+3     :     0.001803
      f-3     :     0.001718

 13 H s       :     0.756244  s :     0.756244
      pz      :     0.008931  p :     0.024748
      px      :     0.012528
      py      :     0.003289

 14 Brs       :     7.973940  s :     7.973940
      pz      :     5.198752  p :    16.922284
      px      :     5.763946
      py      :     5.959587
      dz2     :     2.020846  d :    10.050914
      dxz     :     2.020514
      dyz     :     2.004353
      dx2y2   :     2.002186
      dxy     :     2.003016
      f0      :     0.001706  f :     0.006297
      f+1     :     0.002721
      f-1     :     0.000516
      f+2     :     0.000657
      f-2     :     0.000550
      f+3     :     0.000040
      f-3     :     0.000107



                     *******************************
                     * LOEWDIN POPULATION ANALYSIS *
                     *******************************

----------------------
LOEWDIN ATOMIC CHARGES
----------------------
   0 C :    0.033785
   1 C :   -0.075855
   2 C :    0.032602
   3 H :    0.176113
   4 H :    0.180469
   5 N :    0.110444
   6 O :   -0.032986
   7 O :   -0.032968
   8 C :    0.033663
   9 H :    0.176117
  10 C :   -0.075820
  11 H :    0.180462
  12 C :   -0.314662
  13 H :    0.186427
  14 Br:    0.422209

-------------------------------
LOEWDIN REDUCED ORBITAL CHARGES
-------------------------------
  0 C s       :     2.788994  s :     2.788994
      pz      :     0.643028  p :     2.736625
      px      :     1.082247
      py      :     1.011350
      dz2     :     0.027698  d :     0.399409
      dxz     :     0.076474
      dyz     :     0.027451
      dx2y2   :     0.107479
      dxy     :     0.160308
      f0      :     0.003390  f :     0.041187
      f+1     :     0.003807
      f-1     :     0.003103
      f+2     :     0.005306
      f-2     :     0.003143
      f+3     :     0.007830
      f-3     :     0.014608

  1 C s       :     2.751636  s :     2.751636
      pz      :     0.896582  p :     2.934872
      px      :     1.041091
      py      :     0.997199
      dz2     :     0.027270  d :     0.348302
      dxz     :     0.026331
      dyz     :     0.023260
      dx2y2   :     0.114490
      dxy     :     0.156952
      f0      :     0.003260  f :     0.041046
      f+1     :     0.004328
      f-1     :     0.003622
      f+2     :     0.003022
      f-2     :     0.001613
      f+3     :     0.009619
      f-3     :     0.015582

  2 C s       :     2.734449  s :     2.734449
      pz      :     0.649334  p :     2.606784
      px      :     0.848826
      py      :     1.108623
      dz2     :     0.043353  d :     0.560366
      dxz     :     0.057822
      dyz     :     0.099889
      dx2y2   :     0.216878
      dxy     :     0.142423
      f0      :     0.004877  f :     0.065799
      f+1     :     0.006207
      f-1     :     0.003996
      f+2     :     0.005481
      f-2     :     0.008235
      f+3     :     0.013883
      f-3     :     0.023121

  3 H s       :     0.761348  s :     0.761348
      pz      :     0.007917  p :     0.062539
      px      :     0.018180
      py      :     0.036442

  4 H s       :     0.753433  s :     0.753433
      pz      :     0.012165  p :     0.066099
      px      :     0.020478
      py      :     0.033455

  5 N s       :     2.950951  s :     2.950951
      pz      :     0.953885  p :     3.185566
      px      :     1.120652
      py      :     1.111030
      dz2     :     0.040480  d :     0.692037
      dxz     :     0.025203
      dyz     :     0.167662
      dx2y2   :     0.264414
      dxy     :     0.194278
      f0      :     0.002716  f :     0.061001
      f+1     :     0.002563
      f-1     :     0.005869
      f+2     :     0.003090
      f-2     :     0.009655
      f+3     :     0.010042
      f-3     :     0.027066

  6 O s       :     3.539297  s :     3.539297
      pz      :     1.374180  p :     4.388106
      px      :     1.681041
      py      :     1.332885
      dz2     :     0.013574  d :     0.095994
      dxz     :     0.004683
      dyz     :     0.015457
      dx2y2   :     0.026270
      dxy     :     0.036010
      f0      :     0.000682  f :     0.009590
      f+1     :     0.000485
      f-1     :     0.001544
      f+2     :     0.000444
      f-2     :     0.000798
      f+3     :     0.003585
      f-3     :     0.002052

  7 O s       :     3.539283  s :     3.539283
      pz      :     1.374147  p :     4.388099
      px      :     1.693428
      py      :     1.320523
      dz2     :     0.013573  d :     0.095996
      dxz     :     0.004213
      dyz     :     0.015934
      dx2y2   :     0.027822
      dxy     :     0.034455
      f0      :     0.000683  f :     0.009590
      f+1     :     0.000446
      f-1     :     0.001584
      f+2     :     0.000513
      f-2     :     0.000730
      f+3     :     0.003520
      f-3     :     0.002116

  8 C s       :     2.788946  s :     2.788946
      pz      :     0.643253  p :     2.736815
      px      :     1.082666
      py      :     1.010896
      dz2     :     0.027764  d :     0.399384
      dxz     :     0.077959
      dyz     :     0.025895
      dx2y2   :     0.109884
      dxy     :     0.157882
      f0      :     0.003391  f :     0.041192
      f+1     :     0.003849
      f-1     :     0.003070
      f+2     :     0.005049
      f-2     :     0.003397
      f+3     :     0.007933
      f-3     :     0.014503

  9 H s       :     0.761345  s :     0.761345
      pz      :     0.007924  p :     0.062537
      px      :     0.017311
      py      :     0.037302

 10 C s       :     2.751641  s :     2.751641
      pz      :     0.896561  p :     2.934833
      px      :     1.041438
      py      :     0.996834
      dz2     :     0.027260  d :     0.348302
      dxz     :     0.025929
      dyz     :     0.023679
      dx2y2   :     0.113807
      dxy     :     0.157628
      f0      :     0.003260  f :     0.041045
      f+1     :     0.004285
      f-1     :     0.003665
      f+2     :     0.003117
      f-2     :     0.001520
      f+3     :     0.009656
      f-3     :     0.015542

 11 H s       :     0.753438  s :     0.753438
      pz      :     0.012164  p :     0.066099
      px      :     0.021461
      py      :     0.032475

 12 C s       :     2.776280  s :     2.776280
      pz      :     0.946573  p :     2.997197
      px      :     1.007278
      py      :     1.043345
      dz2     :     0.089546  d :     0.495818
      dxz     :     0.086677
      dyz     :     0.082784
      dx2y2   :     0.125897
      dxy     :     0.110914
      f0      :     0.004232  f :     0.045367
      f+1     :     0.004822
      f-1     :     0.005941
      f+2     :     0.003332
      f-2     :     0.006792
      f+3     :     0.007601
      f-3     :     0.012647

 13 H s       :     0.750600  s :     0.750600
      pz      :     0.023503  p :     0.062972
      px      :     0.029578
      py      :     0.009892

 14 Brs       :     7.651495  s :     7.651495
      pz      :     5.201896  p :    16.808992
      px      :     5.719043
      py      :     5.888053
      dz2     :     2.042392  d :    10.105942
      dxz     :     2.037485
      dyz     :     2.014141
      dx2y2   :     2.003399
      dxy     :     2.008525
      f0      :     0.003324  f :     0.011363
      f+1     :     0.004503
      f-1     :     0.001128
      f+2     :     0.001095
      f-2     :     0.001053
      f+3     :     0.000065
      f-3     :     0.000195



                      *****************************
                      * MAYER POPULATION ANALYSIS *
                      *****************************

  NA   - Mulliken gross atomic population
  ZA   - Total nuclear charge
  QA   - Mulliken gross atomic charge
  VA   - Mayer's total valence
  BVA  - Mayer's bonded valence
  FA   - Mayer's free valence

  ATOM       NA         ZA         QA         VA         BVA        FA
  0 C      6.0347     6.0000    -0.0347     3.8581     3.8581    -0.0000
  1 C      6.1861     6.0000    -0.1861     3.9160     3.9160    -0.0000
  2 C      5.8176     6.0000     0.1824     4.0761     4.0761     0.0000
  3 H      0.7784     1.0000     0.2216     0.9522     0.9522    -0.0000
  4 H      0.7609     1.0000     0.2391     0.9549     0.9549     0.0000
  5 N      6.4167     7.0000     0.5833     4.0296     4.0296    -0.0000
  6 O      8.3239     8.0000    -0.3239     1.8296     1.8296    -0.0000
  7 O      8.3238     8.0000    -0.3238     1.8297     1.8297    -0.0000
  8 C      6.0346     6.0000    -0.0346     3.8583     3.8583     0.0000
  9 H      0.7782     1.0000     0.2218     0.9521     0.9521     0.0000
 10 C      6.1862     6.0000    -0.1862     3.9165     3.9165     0.0000
 11 H      0.7610     1.0000     0.2390     0.9551     0.9551     0.0000
 12 C      5.8633     6.0000     0.1367     3.9124     3.9124    -0.0000
 13 H      0.7810     1.0000     0.2190     0.9290     0.9290     0.0000
 14 Br    34.9534    35.0000     0.0466     1.1247     1.1247    -0.0000

  Mayer bond orders larger than 0.100000
B(  0-C ,  1-C ) :   1.5401 B(  0-C ,  3-H ) :   0.9439 B(  0-C ,  8-C ) :   0.1196 
B(  0-C , 12-C ) :   1.0461 B(  0-C , 14-Br) :   0.1095 B(  1-C ,  2-C ) :   1.3707 
B(  1-C ,  4-H ) :   0.9144 B(  2-C ,  5-N ) :   0.9919 B(  2-C , 10-C ) :   1.3705 
B(  5-N ,  6-O ) :   1.5359 B(  5-N ,  7-O ) :   1.5360 B(  6-O ,  7-O ) :   0.2012 
B(  8-C ,  9-H ) :   0.9435 B(  8-C , 10-C ) :   1.5408 B(  8-C , 12-C ) :   1.0467 
B(  8-C , 14-Br) :   0.1091 B( 10-C , 11-H ) :   0.9144 B( 12-C , 13-H ) :   0.9381 
B( 12-C , 14-Br) :   0.8484 

-------
TIMINGS
-------

Total SCF time: 0 days 0 hours 1 min 58 sec 

Total time                  ....     118.079 sec
Sum of individual times     ....     112.620 sec  ( 95.4%)

SCF preparation             ....       0.045 sec  (  0.0%)
Fock matrix formation       ....     112.353 sec  ( 95.2%)
  Startup                   ....       0.003 sec  (  0.0% of F)
  Split-RI-J                ....       5.786 sec  (  5.2% of F)
  Chain of spheres X        ....     111.985 sec  ( 99.7% of F)
Diagonalization             ....       0.000 sec  (  0.0%)
Density matrix formation    ....       0.020 sec  (  0.0%)
Total Energy calculation    ....       0.006 sec  (  0.0%)
Population analysis         ....       0.011 sec  (  0.0%)
Orbital Transformation      ....       0.020 sec  (  0.0%)
Orbital Orthonormalization  ....       0.000 sec  (  0.0%)
DIIS solution               ....       0.108 sec  (  0.1%)
SOSCF solution              ....       0.048 sec  (  0.0%)
Finished LeanSCF after 118.1 sec

Maximum memory used throughout the entire LEANSCF-calculation: 51.8 MB

------------------------------------------------------------------------------
                         ORCA PROPERTY INTEGRAL CALCULATIONS
------------------------------------------------------------------------------

GBWName                                   ... input.gbw
Number of atoms                           ...     15
Number of basis functions                 ...    357
Max core memory                           ...   8000 MB

Dipole integrals                          ... YES
Quadrupole integrals                      ...  NO
Linear momentum integrals                 ... YES
Angular momentum integrals                ... YES
Higher moments length integrals           ...  NO
Higher moments velocity integrals         ...  NO
Kinetic energy integrals                  ...  NO
GIAO right hand sides                     ...  NO
GIAO dipole derivative integrals          ...  NO
SOC integrals                             ...  NO
EPR diamagnetic integrals (GIAO)          ...  NO
EPR gauge integrals                       ...  NO
Field gradient integrals                  ...  NO (   0 nuclei)
Spin-dipole/Fermi contact integrals       ...  NO (   0 nuclei)
Contact density integrals                 ...  NO (   0 nuclei)
Nucleus-orbit integrals                   ...  NO (   0 nuclei)
Geometric perturbations                   ...  NO (  15 nuclei)

Choice of electric origin   ... Center of mass
Position of electric origin ... ( -0.0188, -0.0003, -0.0097) 
Choice of magnetic origin   ... GIAO
Position of magnetic origin ... (  0.0000,  0.0000,  0.0000) 

Calculating integrals                     ... Electric Dipole (Length)     done (  0.0 sec)
Calculating integrals                     ... Linear Momentum              done (  0.0 sec)
Calculating integrals                     ... Angular Momentum  (ElOri)    done (  0.0 sec)

Property integrals calculated in   0.0 sec

Maximum memory used throughout the entire PROPINT-calculation: 37.9 MB


--------------------------------------------------------------------------------
                             ORCA-MATRIX DRIVEN CI
--------------------------------------------------------------------------------


Wavefunction type
-----------------
Correlation treatment                      ...      CCSD     
Single excitations                         ... ON
Orbital optimization                       ... OFF
Calculation of Z vector                    ... OFF
Calculation of Brueckner orbitals          ... OFF
Perturbative triple excitations            ... ON
Calculation of F12 correction              ... OFF
Frozen core treatment                      ... chemical core (36 el)
Reference Wavefunction                     ... RHF
  Internal Orbitals:    18 ...   48 ( 31 MO's/ 62 electrons)
  Virtual  Orbitals:    49 ...  356 (308 MO's              )
Number of AO's                             ...    357
Number of electrons                        ...     98
Number of correlated electrons             ...     62

Algorithmic settings
--------------------
Integral transformation                    ... All integrals via the RI transformation
K(C) Formation                             ... RI-DLPNO
   PNO-Integral Storage                    ... ON DISK
   PNO occupation number cut-off           ... 1.000e-07
   Singles PNO occupation number cut-off   ... 3.000e-09
   PNO Mulliken prescreening cut-off       ... 1.000e-03
   Domain cut-off (Mulliken population)    ... 1.000e-03
   PNO Normalization                       ...    1
Maximum number of iterations               ...        50
Convergence tolerance (max. residuum)      ... 1.000e-05
Level shift for amplitude update           ... 2.000e-01
Maximum number of DIIS vectors             ...         7
DIIS turned on at iteration                ...         0
Damping before turning on DIIS             ...     0.500
Damping after turning on DIIS              ...     0.000
Pair specific amplitude update             ... OFF
Natural orbital iterations                 ... OFF
Perturbative natural orbital generation    ... OFF
Printlevel                                 ... 2

Singles Fock matrix elements calculated using PNOs.

Memory handling:
----------------
Maximum memory for working arrays          ...   8000 MB
Data storage in matrix containers          ... UNCOMPRESSED
Data type for integral storage             ... DOUBLE
In-Core Storage of quantities:
   Amplitudes+Sigma Vector      ... NO
   J+K operators                ... NO
   DIIS vectors                 ... NO
   3-external integrals         ... NO
   4-external integrals         ... NO

Localization treatment:
-----------------------
Localization option                        ...    6
Localization threshhold                    ... -1.0e+00
Using relative localization threshhold     ... 1.0e-08
Neglect threshold for strong pairs         ... 1.000e-05 Eh
Prescreening threshold for very weak pairs ... 1.000e-07 Eh

Initializing the integral package          ... done
Localizing the valence orbitals
Localizing the valence orbitals
------------------------------------------------------------------------------
                           ORCA ORBITAL LOCALIZATION
------------------------------------------------------------------------------

Input orbitals are from                  ... input.gbw
Output orbitals are to                   ... input.loc
Max. number of iterations                ... 128
Localizations seeded randomly            ... off
Convergence tolerance                    ... 1.000e-06
Using relative localization threshhold   ... 1.000e-08
Threshold for strong local MOs           ... 9.500e-01
Threshold for bond MOs                   ... 8.500e-01
Operator                                 ... 0
Orbital range for localization           ... 18 to 48
Localization criterion                   ... FOSTER-BOYS (AUGMENTED HESSIAN)
Doing the dipole integrals               ... o.k.
Initial value of the localization sum :   682.954581
ITERATION   0 : L=  726.5792218082 DL=  4.36e+01 (AVERGE_DL)=    0.3062946817 
ITERATION   1 : L=  731.9791146142 DL=  5.40e+00 (AVERGE_DL)=    0.1077621116 
ITERATION   2 : L=  732.4944576558 DL=  5.15e-01 (AVERGE_DL)=    0.0332906084 
ITERATION   3 : L=  732.5134821700 DL=  1.90e-02 (AVERGE_DL)=    0.0063963219 
ITERATION   4 : L=  732.5149204813 DL=  1.44e-03 (AVERGE_DL)=    0.0017587332 
ITERATION   5 : L=  732.5150307836 DL=  1.10e-04 (AVERGE_DL)=    0.0004870412 
ITERATION   6 : L=  732.5150385569 DL=  7.77e-06 (AVERGE_DL)=    0.0001292933 
ITERATION   7 : L=  732.5150406596 DL=  2.10e-06 (AVERGE_DL)=    0.0000672460 
ITERATION   8 : L=  732.5150422914 DL=  1.63e-06 (AVERGE_DL)=    0.0000592391 
ITERATION   9 : L=  732.5150437280 DL=  1.44e-06 (AVERGE_DL)=    0.0000555827 
ITERATION  10 : L=  732.5150450612 DL=  1.33e-06 (AVERGE_DL)=    0.0000535453 
ITERATION  11 : L=  732.5150463266 DL=  1.27e-06 (AVERGE_DL)=    0.0000521649 
ITERATION  12 : L=  732.5150475400 DL=  1.21e-06 (AVERGE_DL)=    0.0000510826 
ITERATION  13 : L=  732.5150487090 DL=  1.17e-06 (AVERGE_DL)=    0.0000501406 
ITERATION  14 : L=  732.5150498397 DL=  1.13e-06 (AVERGE_DL)=    0.0000493119 
ITERATION  15 : L=  732.5150509340 DL=  1.09e-06 (AVERGE_DL)=    0.0000485103 
ITERATION  16 : L=  732.5150519940 DL=  1.06e-06 (AVERGE_DL)=    0.0000477461 
ITERATION  17 : L=  732.5150530219 DL=  1.03e-06 (AVERGE_DL)=    0.0000470159 
ITERATION  18 : L=  732.5150540178 DL=  9.96e-07 (AVERGE_DL)=    0.0000462787 
LOCALIZATION SUM CONVERGED

------------------------------------------------------
AUGMENTED HESSIAN OPTIMIZATION OF FOSTER-BOYS ORBITALS
------------------------------------------------------

Spin operator:           0
Orbital window:          18 to 48
Number of iterations:    128
Gradient tolerance:      1.000e-06
Number of pairs:         465
Davidson threshold:      2000
Diagonalization method:  LAPACK
Iter:    0   L: 732.5150540178   Grad. norm: 3.998915e-03
Iter:    1   L: 732.5150858596   Grad. norm: 6.507267e-04
   *** Likely close to a maximum now. ***
       Augmented Hessian eigenvalues:  6.67e-08 -2.71e-04 -4.64e-04 -6.32e-04 ... 
Iter:    2   L: 732.5150858932   Grad. norm: 7.836455e-06
Iter:    3   L: 732.5150858932   Grad. norm: 1.404221e-09
LOCALIZATION HAS CONVERGED.

Eigenvalues of the Hessian:
  0 -2.679e-04
  1 -4.642e-04
  2 -6.318e-04
  3 -1.055e-03
  4 -1.908e-03
  5 -2.459e-03
  6 -3.502e-03
  7 -4.381e-03
  8 -5.826e-03
  9 -5.967e-03
    ...


--------------------------------------------------------------------------------
                    LOCALIZED MOLECULAR ORBITAL COMPOSITIONS
--------------------------------------------------------------------------------

The Mulliken populations for each LMO on each atom are computed
The LMO`s will be ordered according to atom index and type
  (A) Strongly localized MO`s have populations of >=0.950 on one atom
  (B) Two center bond orbitals have populations of >=0.850 on two atoms
  (C) Other MO`s are considered to be `delocalized`

FOUND  -  12 strongly local MO`s
       -  19 two center bond MO`s
       -   0 significantly delocalized MO`s

Rather strongly localized orbitals:
MO  29:  14Br -   0.990401
MO  28:  14Br -   0.994170
MO  27:  14Br -   0.999590
MO  26:  14Br -   0.999945
MO  25:  14Br -   0.999635
MO  24:  14Br -   0.994172
MO  23:  14Br -   0.999906
MO  22:  14Br -   0.999635
MO  21:   7O  -   0.987896
MO  20:   7O  -   0.987570
MO  19:   6O  -   0.987916
MO  18:   6O  -   0.987566
Bond-like localized orbitals:
MO  48:  14Br -   0.515200  and  12C  -   0.405466
MO  47:  13H  -   0.403192  and  12C  -   0.622891
MO  46:  12C  -   0.449602  and   8C  -   0.553751
MO  45:  12C  -   0.449654  and   0C  -   0.553739
MO  44:  11H  -   0.378688  and  10C  -   0.621894
MO  43:  10C  -   0.495535  and   8C  -   0.414057
MO  42:  10C  -   0.518063  and   8C  -   0.393945
MO  41:  10C  -   0.487481  and   2C  -   0.535626
MO  40:   9H  -   0.392444  and   8C  -   0.623617
MO  39:   7O  -   0.598775  and   5N  -   0.396299
MO  38:   7O  -   0.599370  and   5N  -   0.395299
MO  37:   6O  -   0.598798  and   5N  -   0.396297
MO  36:   6O  -   0.599406  and   5N  -   0.395230
MO  35:   5N  -   0.599034  and   2C  -   0.449597
MO  34:   4H  -   0.378634  and   1C  -   0.622069
MO  33:   3H  -   0.392512  and   0C  -   0.623834
MO  32:   2C  -   0.535600  and   1C  -   0.487473
MO  31:   1C  -   0.495476  and   0C  -   0.413626
MO  30:   1C  -   0.518055  and   0C  -   0.394113
Localized MO's were stored in: input.loc

Localizing the core orbitals
------------------------------------------------------------------------------
                           ORCA ORBITAL LOCALIZATION
------------------------------------------------------------------------------

Input orbitals are from                  ... input.loc
Output orbitals are to                   ... input.loc
Max. number of iterations                ... 128
Localizations seeded randomly            ... off
Convergence tolerance                    ... 1.000e-06
Using relative localization threshhold   ... 1.000e-08
Threshold for strong local MOs           ... 9.500e-01
Threshold for bond MOs                   ... 8.500e-01
Operator                                 ... 0
Orbital range for localization           ... 0 to 17
Localization criterion                   ... FOSTER-BOYS (AUGMENTED HESSIAN)
Doing the dipole integrals               ... o.k.
Initial value of the localization sum :   375.292486
ITERATION   0 : L=  375.4468174874 DL=  1.54e-01 (AVERGE_DL)=    0.0317600643 
ITERATION   1 : L=  375.5839736823 DL=  1.37e-01 (AVERGE_DL)=    0.0299407034 
ITERATION   2 : L=  375.6066631162 DL=  2.27e-02 (AVERGE_DL)=    0.0121777237 
ITERATION   3 : L=  375.6159873087 DL=  9.32e-03 (AVERGE_DL)=    0.0078065636 
ITERATION   4 : L=  375.6388524596 DL=  2.29e-02 (AVERGE_DL)=    0.0122247876 
ITERATION   5 : L=  375.6435944398 DL=  4.74e-03 (AVERGE_DL)=    0.0055671657 
ITERATION   6 : L=  375.6439568866 DL=  3.62e-04 (AVERGE_DL)=    0.0015391341 
ITERATION   7 : L=  375.6439777676 DL=  2.09e-05 (AVERGE_DL)=    0.0003694284 
ITERATION   8 : L=  375.6439789944 DL=  1.23e-06 (AVERGE_DL)=    0.0000895448 
ITERATION   9 : L=  375.6439792479 DL=  2.53e-07 (AVERGE_DL)=    0.0000407001 
LOCALIZATION SUM CONVERGED

------------------------------------------------------
AUGMENTED HESSIAN OPTIMIZATION OF FOSTER-BOYS ORBITALS
------------------------------------------------------

Spin operator:           0
Orbital window:          0 to 17
Number of iterations:    128
Gradient tolerance:      1.000e-06
Number of pairs:         153
Davidson threshold:      2000
Diagonalization method:  LAPACK
Iter:    0   L: 375.6439792479   Grad. norm: 1.473615e-03
   *** Detected a saddle point. ***
       Augmented Hessian eigenvalues:  1.41e-04  3.49e-05  1.11e-06  4.74e-07 ... 
Iter:    1   L: 375.6440299663   Grad. norm: 7.634376e-04
Iter:    2   L: 375.6440354566   Grad. norm: 1.177625e-04
Iter:    3   L: 375.6440357757   Grad. norm: 6.680397e-05
Iter:    4   L: 375.6440358502   Grad. norm: 4.841601e-05
Iter:    5   L: 375.6440358614   Grad. norm: 1.175163e-06
   *** Likely close to a maximum now. ***
       Augmented Hessian eigenvalues:  9.67e-12 -3.11e-07 -3.12e-06 -3.94e-06 ... 
Iter:    6   L: 375.6440358614   Grad. norm: 7.633292e-10
LOCALIZATION HAS CONVERGED.

Eigenvalues of the Hessian:
  0 -3.099e-07
  1 -3.125e-06
  2 -3.935e-06
  3 -2.181e-05
  4 -5.689e-04
  5 -6.340e-04
  6 -1.930e-02
  7 -1.930e-02
  8 -1.931e-02
  9 -5.792e-02
    ...


--------------------------------------------------------------------------------
                    LOCALIZED MOLECULAR ORBITAL COMPOSITIONS
--------------------------------------------------------------------------------

The Mulliken populations for each LMO on each atom are computed
The LMO`s will be ordered according to atom index and type
  (A) Strongly localized MO`s have populations of >=0.950 on one atom
  (B) Two center bond orbitals have populations of >=0.850 on two atoms
  (C) Other MO`s are considered to be `delocalized`

FOUND  -  18 strongly local MO`s
       -   0 two center bond MO`s
       -   0 significantly delocalized MO`s

Rather strongly localized orbitals:
MO  17:  14Br -   1.000009
MO  16:  14Br -   1.000003
MO  15:  14Br -   1.000009
MO  14:  14Br -   0.999725
MO  13:  14Br -   0.999999
MO  12:  14Br -   0.999760
MO  11:  14Br -   0.999130
MO  10:  14Br -   0.999760
MO   9:  14Br -   0.999962
MO   8:  12C  -   1.002241
MO   7:  10C  -   1.001433
MO   6:   8C  -   1.001457
MO   5:   7O  -   0.999596
MO   4:   6O  -   0.999596
MO   3:   5N  -   1.000959
MO   2:   2C  -   1.000168
MO   1:   1C  -   1.001426
MO   0:   0C  -   1.001458
Localized MO's were stored in: input.loc

Warning: reference  - re-canonicalizations have been set to INT 1 VIRT 1
Warning: internal orbitals are localized - no re-canonicalization of internal orbitals
Warning: UsePNO is turned on - no re-canonicalization of internal and virtual orbitals
Fock densities were made 
Making Fock matrix and reference energy:

--------------------------
CLOSED-SHELL FOCK OPERATOR
--------------------------

Time needed for Fock operator              ...           21.733 sec
Reference energy                           ...  -3006.406075609

--------------
DLPNO SETTINGS (2015 fully linear scaling implementation)
--------------

TCutMKN:           1.000e-03
TCutPAO:           1.000e-03
TCutPNO:           1.000e-07
TCutPNOSingles:    3.000e-09
TCutEN:            9.700e-01
TCutPAOExt:        1.000e-01
TCutPairs:         1.000e-05
TCutPre:           1.000e-07
TCutOSV:           1.000e-06
TCutDOij:          1.000e-05
TCutDO:            5.000e-03
TCutC:             1.000e-04
TCutCPAO:          1.000e-03
TCutCMO:           1.000e-03
TScaleDOMP2PreScr: 2.000e+00
TScaleMKNMP2PreScr:1.000e+01
TScalePNOMP2PreScr:1.000e+00
PAO overlap thresh 1.000e-08
Using PNOs for Singles Fock computation
Use new domains
Use fully linear algorithm
TCutTNO:           1.000e-09
TCutMP2Pairs:      1.000e-06
TCutDOStrong:      1.000e-02
TCutDOWeak:        2.000e-02
TCutMKNStrong:     1.000e-02
TCutMKNWeak:       1.000e-01
NTCutTNO:          1

--------------------------
Mulliken population of the LMOs            ... ok
Performing proximity check                 ... 
 found 5 problematic atoms
   => In all likelyhood your results will be entirely fine!
   => In case you don't want to trust it, decrease TCutMKN to below 0.00001036.
   => but note that this is probably not necessary but will increase execution time
Calculating differential overlap integrals ... ok

--------------------------
ELECTRON PAIR PRESCREENING
--------------------------

Dipole-based pair screening          .... used

   TCutDOij = 1.000000e-05
   TCutPre  = 1.000000e-07
   .... Finished loop over pairs
Total time spent in the prescreening                  ...     0.000 sec
sum of pair energies estimated for screened out pairs ...       0.000000000000 Eh
Thresholds for map construction and integral transformation for crude MP2:
   TCutMKN                    ...     1.0e-02
   TCutDO                     ...     1.0e-02
   TCutPairs                  ...     1.0e-05
   TCutPNO_CrudeMP2           ...     1.0e-07
   TCutPNOSingles_CrudeMP2    ...     3.0e-09
--------------------------------
LOCAL RI TRANSFORMATION (IAVPAO)
--------------------------------

Orbital window:      18 to 48
Number of PAOs:     357
Basis functions:    357 (135 shells)
Aux. functions:     918 (270 shells)
Use SHARK:           on
Have SHARK:         yes

Processing maps (0.0 sec)
Average map sizes:
   Aux shells -> MOs              31.0
   Aux shells -> PAOs            357.0
   MOs        -> AO shells       127.8
   PAOs       -> AO shells       135.0

Calculating integrals (1.2 sec, 77.521 MB)
Sorting integrals (0.1 sec, 77.511 MB)
Total time for the integral transformation: 1.2 sec
--------------------------------
INITIAL GUESS AND PNO GENERATION
--------------------------------

PNO truncation parameters                   .... 
    PAOOverlapThresh   =        1.000e-08

    TCutPairs          =        1.000e-05
    TCutPNO            =        1.000e-07
    TCutPNOSingles     =        3.000e-09
    TCutMP2Pairs       =        1.000e-06
    TCutMKN            =        1.000e-02
    TCutDO             =        1.000e-02

Pair selection                          .... not used
[...]
------------------------------------------------

Number of PNO amplitudes to be optimized   ...       748292
Number of non-PNO amplitudes               ...     36712368
Untruncated number of regular amplitudes   ...     47052544

Iter       E(tot)           E(Corr)          Delta-E          Residual     Time
  0  -3008.189313982     -1.780725441      0.101877979      0.018658403   78.41
                           *** Turning on DIIS ***
  1  -3008.220386025     -1.811797484     -0.031072043      0.010386022   79.48
  2  -3008.271593933     -1.863005393     -0.051207908      0.004862017   81.10
  3  -3008.285165974     -1.876577434     -0.013572042      0.003880514   80.28
  4  -3008.289569745     -1.880981205     -0.004403771      0.002512215   79.72
  5  -3008.291477220     -1.882888680     -0.001907475      0.001284256   81.59
  6  -3008.292056793     -1.883468253     -0.000579572      0.000736645   80.07
  7  -3008.292191572     -1.883603032     -0.000134780      0.000292275   82.07
  8  -3008.292243293     -1.883654753     -0.000051721      0.000136418   85.93
  9  -3008.292228785     -1.883640245      0.000014508      0.000038834   87.64
 10  -3008.292232594     -1.883644054     -0.000003809      0.000017860   87.75
 11  -3008.292227891     -1.883639351      0.000004703      0.000011065   89.07
 12  -3008.292226071     -1.883637531      0.000001820      0.000007307   89.37
               --- The Coupled-Cluster iterations have converged ---

----------------------
COUPLED CLUSTER ENERGY
----------------------

E(0)                                       ...  -3006.406075609
E(CORR)(strong-pairs)                      ...     -1.883637531
E(CORR)(weak-pairs)                        ...     -0.002512931
E(CORR)(corrected)                         ...     -1.886150462
E(TOT)                                     ...  -3008.292226071
Singles Norm <S|S>**1/2                    ...      0.127983173  
T1 diagnostic                              ...      0.016253879  

------------------
LARGEST AMPLITUDES
------------------
  35-> 51  35-> 51       0.053931
  48-> 50  48-> 50       0.052949
  37-> 49  37-> 49       0.043284
  39-> 49  39-> 49       0.043284
  38-> 49  38-> 49       0.043205
  36-> 49  36-> 49       0.043204
  31-> 50  31-> 50       0.036726
  43-> 50  43-> 50       0.036671
  31-> 49  31-> 49       0.035865
  43-> 49  43-> 49       0.035772
  48-> 49  48-> 49       0.032733
  42-> 49  42-> 49       0.031731
  42-> 50  42-> 50       0.031731
  30-> 49  30-> 49       0.031690
  30-> 50  30-> 50       0.031657
  43-> 50  42-> 50       0.028302


-------------------------------------------
DLPNO BASED TRIPLES CORRECTION
-------------------------------------------

Singles multiplier          ...  1.000000
TCutTNO                     ... 1.000e-09
TCutMP2Pairs                ... 1.000e-06
TCutDOStrong                ... 1.000e-02
TCutMKNStrong               ... 1.000e-02
TCutDOWeak                  ... 2.000e-02
TCutMKNWeak                 ... 1.000e-01

Fragment selection                          .... not used
Number of Triples that are to be computed   ...      3802

 . . . . . . . . .             (     86.310 sec)
 . . . . . . . . .
10% done               (     80.276 sec)
 . . . . . . . . .             (     75.414 sec)
 . . . . . . . . .
20% done               (     65.727 sec)
 . . . . . . . . .
30% done               (     61.362 sec)
 . . . . . . . . .
40% done               (     63.745 sec)
 . . . . . . . . .
50% done               (     60.901 sec)
 . . . . . . . . .
60% done               (     63.182 sec)
 . . . . . . . . .
70% done  
80% done               (     82.913 sec)
 . . . . . . . . .
90% done               (     77.102 sec)
 . . . . . . . . .             (     13.729 sec)
Triples timings:
Total time for T0               ...   823.314 sec
Total time for Iterative (T)    ...     0.000 sec
Total time of overall (T)       ...   823.314 sec

Triples List generation         ...     0.000 sec
TNO generation                  ...    92.636 sec
Pair density generation         ...     0.004 sec
Look up tables                  ...     0.000 sec
Generating 3-index integrals    ...   474.787 sec
  Make 4-ind.int. from 3-ind.int...    63.860 sec
  Projecting amplitudes (D + S) ...    68.648 sec
  Downprojecting integrals      ...     0.009 sec
  Energy contr. (sum over a,b,c)...    52.394 sec
Fitting ET(->0)                 ...     0.000 sec

Everything after 3-index        ...   255.874 sec

Timing details:
 TNO integrals                  ...   524.307 sec
   Reading 3-index integrals    ...     1.585 sec
   Sorting integrals            ...   123.053 sec
       Sorting integrals 1      ...     0.009 sec
       Sorting integrals 2      ...    84.864 sec
       Sorting integrals 3      ...     6.152 sec
       Sorting integrals 4      ...     0.194 sec
       Sorting integrals 5      ...     1.290 sec
       Sorting integrals 6      ...    30.544 sec
   Calculating local VM**-1/2   ...     3.125 sec
   Orthogonal. integrals        ...     6.424 sec
   Multipl. 3-index integrals   ...   390.120 sec
   All concerning IRIab (w/TNO) ...    16.698 sec

 Calculate W0/W1                ...    64.988 sec
 W 3-ext contribution           ...    16.583 sec
 W 3-int contribution           ...    11.736 sec
 Sorting W                      ...    32.682 sec

 V exchange contribution        ...    24.105 sec

 Timings for Triples without generation
     of 3-index integrals       ...   255.468 sec
       0 weak pairs             ...   233.622 sec
       1 weak pair              ...    21.845 sec
       2 weak pairs             ...     0.000 sec
       3 weak pairs             ...     0.000 sec
  Extra time for extrapolation  ...     0.000 sec

Number of Triples   (0, 1, 2, 3 weak pairs; overall):   3140     662       0       0  (  3802)
Number of Atoms     (0, 1, 2, 3 weak pairs; overall):   13.9    11.9     0.0     0.0  (    15)
Number of PAOs      (0, 1, 2, 3 weak pairs; overall):  337.5   319.7     0.0     0.0  (   357)
Number of AuxFcns   (0, 1, 2, 3 weak pairs; overall):  480.6   353.4     0.0     0.0  (   918)
Number of TNOs      (0, 1, 2, 3 weak pairs         ):   98.1    69.0     0.0     0.0
Aver. Number of NTNO, Atoms, PAOs, AuxFcns / Triples:   3802    93.1    13.5   334.4   458.4

Triples Correction (T)                     ...     -0.095970463
Final correlation energy                   ...     -1.982120925
E(CCSD)                                    ...  -3008.292226071
E(CCSD(T))                                 ...  -3008.388196535



--------------------------------------------------------------------------------
                                    TIMINGS
--------------------------------------------------------------------------------


Total execution time                   ...     2486.345 sec

Localization of occupied MO's          ...        0.139 sec (  0.0%)
Fock Matrix Formation                  ...       21.733 sec (  0.9%)
Global overlap, Fock, MKN matrices     ...        0.115 sec (  0.0%)
Differential overlap integrals         ...        0.850 sec (  0.0%)
Organizing maps                        ...        0.019 sec (  0.0%)
RI 3-index integral generations        ...        5.390 sec (  0.2%)
RI-PNO integral transformation         ...      452.504 sec ( 18.2%)
Initial Guess                          ...       99.399 sec (  4.0%)
DIIS Solver                            ...        2.948 sec (  0.1%)
State Vector Update                    ...        0.046 sec (  0.0%)
Sigma-vector construction              ...     1081.786 sec ( 43.5%)
  <0|H|D>                              ...        0.005 sec (  0.0% of sigma)
  <D|H|D>(0-ext)                       ...       50.845 sec (  4.7% of sigma)
  <D|H|D>(2-ext Fock)                  ...        0.124 sec (  0.0% of sigma)
  <D|H|D>(2-ext)                       ...      114.386 sec ( 10.6% of sigma)
  <D|H|D>(4-ext)                       ...      108.720 sec ( 10.1% of sigma)
  <D|H|D>(4-ext-corr)                  ...      611.732 sec ( 56.5% of sigma)
  CCSD doubles correction              ...        3.874 sec (  0.4% of sigma)
  <S|H|S>                              ...        8.848 sec (  0.8% of sigma)
  <S|H|D>(1-ext)                       ...        5.565 sec (  0.5% of sigma)
  <D|H|S>(1-ext)                       ...        0.140 sec (  0.0% of sigma)
  <S|H|D>(3-ext)                       ...        3.736 sec (  0.3% of sigma)
  CCSD singles correction              ...        0.001 sec (  0.0% of sigma)
  Fock-dressing                        ...      119.846 sec ( 11.1% of sigma)
  Singles amplitudes                   ...        1.371 sec (  0.1% of sigma)
  (ik|jl)-dressing                     ...       34.974 sec (  3.2% of sigma)
  (ij|ab),(ia|jb)-dressing             ...       17.239 sec (  1.6% of sigma)
  Pair energies                        ...        0.039 sec (  0.0% of sigma)
Total Time for computing (T)           ...      823.318 sec ( 33.1% of ALL)


Maximum memory used throughout the entire MDCI-calculation: 8035.7 MB

-------------------------   --------------------
FINAL SINGLE POINT ENERGY     -3008.388196534506
-------------------------   --------------------


------------------------------------------------------------------------------
                              ORCA PROPERTY CALCULATIONS
------------------------------------------------------------------------------

GBWName                                 ... input.gbw
Number of atoms                         ...     15
Number of basis functions               ...    357
Max core memory                         ...   8000 MB

Electric properties:
Dipole moment                           ... YES
Quadrupole moment                       ...  NO
Static polarizability (Dipole/Dipole)   ...  NO
Static polarizability (Dipole/Quad.)    ...  NO
Static polarizability (Quad./Quad.)     ...  NO
Static polarizability (Velocity)        ...  NO
Static hyperpolarizability              ...  NO

Atomic electric properties:
Dipole moment                           ...  NO
Quadrupole moment                       ...  NO
Static polarizability                   ...  NO

Choice of electric origin               ... Center of mass
Position of electric origin             ...    -0.018843    -0.000308    -0.009721

General magnetic properties:
Magnetizability                         ...  NO

EPR properties:
g-Tensor (aka g-matrix)                 ...  NO
Zero-Field splitting spin-orbit         ...  NO
Zero-field splitting spin-spin          ...  NO
Hyperfine couplings                     ...  NO (   0 nuclei)
Quadrupole couplings                    ...  NO (   0 nuclei)
Contact density                         ...  NO (   0 nuclei)

NMR properties:
Chemical shifts                         ...  NO (   0 nuclei)
Spin-rotation constants                 ...  NO (   0 nuclei)
Spin-spin couplings                     ...  NO (   0 nuclei,    0 pairs)

Choice of magnetic origin               ... GIAO
Position of magnetic origin             ...     0.000000     0.000000     0.000000

Properties with geometric perturbations:
SCF Hessian                             ...  NO
IR spectrum                             ...  NO
VCD spectrum                            ...  NO
X-ray spectroscopy properties:
SCF XES/XAS/RIXS spectra                ...  NO

SCF SOC stabilization energy            ...  NO
Diagonal Born-Oppenheimer correction    ...  NO

-------------
DIPOLE MOMENT
-------------

Method             : SCF
Type of density    : Electron Density
Multiplicity       :   1
Irrep              :   0
Energy             : -3006.4060823051163425 Eh
Basis              : AO
                                X                 Y                 Z
Electronic contribution:    -19.976460894      -0.336553309     -13.170587899
Nuclear contribution   :     18.529186751       0.320823613      14.502153412
                        -----------------------------------------
Total Dipole Moment    :     -1.447274143      -0.015729695       1.331565513
                        -----------------------------------------
Magnitude (a.u.)       :      1.966701956
Magnitude (Debye)      :      4.998959098



--------------------
Rotational spectrum 
--------------------
 
Rotational constants in cm-1:             0.085402             0.014828             0.013950 
Rotational constants in MHz :          2560.298989           444.526645           418.223085 

Dipole components along the rotational axes: 
x,y,z [a.u.] :    -0.949793    -0.001271     1.722152 
x,y,z [Debye]:    -2.414182    -0.003230     4.377363 

 

Dipole moment calculation done in   0.0 sec 

Maximum memory used throughout the entire PROP-calculation: 35.0 MB

--------------------------------
SUGGESTED CITATIONS FOR THIS RUN
--------------------------------

Below you find a list of papers that are relevant to this ORCA run
We neither can nor want to force you to cite these papers, but we appreciate if you do
You receive ORCA, which is the product of decades of hard work by many enthusiastic individuals, for free
The only thing we kindly ask in return is that you cite our papers,
We deeply appreciate it, if you show your appreciation for ORCA by not just citing the generic ORCA reference.

Please note that relegating all ORCA citations to the supporting information does *not* help us.
SI sections are not indexed - citations you put there will not count into any citation statistics
But we need these citations in order to attract the funding resources that allow us to do what we are doing

Therefore, if you are a happy ORCA user, please consider citing a few of the papers listed below in the main body of your paper

In addition to the list printed below, the program has created the file input.bibtex that contains the list in bibtex format
You can import this file easily into all common literature databanks and citation aid programs

It goes without saying that in many instances, there are alternative algorithms to achieve similar
results as the ones you have gotten from ORCA. It is, of course, also the case that in some instances
ORCA just re-implements algorithms worked out by others. We are fully aware of that and we are also
fully appreciative of our colleagues work. Hence this citation list should not be read as indicating
that the listed papers, which are focused on our own work, are the only ones worth citing. It simply
meant to make it easier for users to cite ORCA specific papers. It is not a substitute for doing your
own literature research and citing the relevant literature in a scientifically appropriate manner.

List of essential papers. We consider these as the minimum necessary citations

  1. Neese, F.
     Software update: the ORCA program system, version 6.0
     WIRES Comput. Molec. Sci. 2025 15(1), e70019
     doi.org/10.1002/wcms.70019

List of papers to cite with high priority. The work reported in these papers was absolutely
necessary for this run to complete.
Our perspective: the developers of density functionals and basis sets usually get cited in chemistry papers
Good! But without the algorithms to do something with them, the functionals or basis sets would not do anything.
Hence, in our opinion, the algorithm design and method developments papers are equally worthy of getting cited

  1. Neese, F.
     An improvement of the resolution of the identity approximation for the formation of the Coulomb matrix
     J. Comp. Chem. 2003 24(14), 1740-1747
     doi.org/10.1002/jcc.10318
  2. Neese, F.; Wennmohs, F.; Hansen, A.; Becker, U.
     Efficient, approximate and parallel Hartree-Fock and hybrid DFT calculations. A 'chain-of-spheres' algorithm for the Hartree-Fock exchange
     Chem. Phys. 2009 356(1-3), 98-109
     doi.org/10.1016/j.chemphys.2008.10.036
  3. Neese, F.; Hansen, A.; Liakos, D.G.
     Efficient and accurate approximations to the local coupled cluster singles doubles method using a truncated pair natural orbital basis
     J. Chem. Phys. 2009 131 , 064103
     doi.org/10.1063/1.3173827
  4. Neese, F.; Wennmohs, F.; Hansen, A.
     Efficient and accurate local approximations to coupled-electron pair approaches: An attempt to revive the pair natural orbital method
     J. Chem. Phys. 2009 130 , 114108
     doi.org/10.1063/1.3086717
  5. Riplinger, C.; Neese, F.
     An efficient and near linear scaling pair natural orbital based local coupled cluster method
     J. Chem. Phys. 2013 138(3), Art. No. 034106
     doi.org/10.1063/1.4773581
  6. Riplinger, C.; Sandhoefer, B.; Hansen, A.; Neese, F.
     Natural triple excitations in local coupled cluster calculations with pair natural orbitals
     J. Chem. Phys. 2013 139(13), Art. No. 134101
     doi.org/10.1063/1.4821834
  7. Riplinger, C.; Pinski, P.; Becker, U.; Valeev, E.F.; Neese, F.
     Sparse maps-A systematic infrastructure for reduced-scaling electronic structure methods. II. Linear scaling domain based pair natural orbital coupled cluster theory
     J. Chem. Phys. 2016 144 , 
     doi.org/10.1063/1.4939030
  8. Bistoni, G.; Riplinger, C.; Minenkov, Y.; Cavallo, L.; Auer, A.A.; Neese, F.
     Treating Subvalence Correlation Effects in Domain Based Pair Natural Orbital Coupled Cluster Calculations: An Out-of-the-Box Approach
     J. Theo. Comp. Chem. 2017 13 , 3220-3227
     doi.org/10.1021/acs.jctc.7b00352
  9. Helmich-Paris, B.; de Souza, B.; Neese, F.; Izsák, R.
     An improved chain of spheres for exchange algorithm
     J. Chem. Phys. 2021 155(10), 104109
     doi.org/10.1063/5.0058766
 10. Neese, F.
     The SHARK Integral Generation and Digestion System
     J. Comp. Chem. 2022 44(3), 381
     doi.org/10.1002/jcc.26942

List of suggested additional citations. These are papers that are important in the 'surrounding' of 
of this run, or papers that preceded the highly important papers. If you like your results we are grateful for a citation.

  1. Izsak, R.; Neese, F.
     An overlap fitted chain of spheres exchange method
     J. Chem. Phys. 2011 135 , 144105
     doi.org/10.1063/1.3646921
  2. Izsak, R.; Hansen, A.; Neese, F.
     The resolution of identity and chain of spheres approximations for the LPNO-CCSD singles Fock term
     Molec. Phys. 2012 110 , 2413-2417
     doi.org/10.1080/00268976.2012.687466
  3. Neese, F.
     The ORCA program system
     WIRES Comput. Molec. Sci. 2012 2(1), 73-78
     doi.org/10.1002/wcms.81
  4. Izsak, R.; Neese, F.; Klopper, W.
     Robust fitting techniques in the chain of spheres approximation to the Fock exchange: The role of the complementary space
     J. Chem. Phys. 2013 139 , 
     doi.org/10.1063/1.4819264
  5. Neese, F.
     Software update: the ORCA program system, version 4.0
     WIRES Comput. Molec. Sci. 2018 8(1), 1-6
     doi.org/10.1002/wcms.1327
  6. Neese, F.; Wennmohs, F.; Becker, U.; Riplinger, C.
     The ORCA quantum chemistry program package
     J. Chem. Phys. 2020 152(22), 224108
     doi.org/10.1063/5.0004608
  7. Neese, F.
     Software update: The ORCA program system—Version 5.0
     WIRES Comput. Molec. Sci. 2022 12(1), e1606
     doi.org/10.1002/wcms.1606

List of optional additional citations

  1. Neese, F.
     Approximate second-order SCF convergence for spin unrestricted wavefunctions
     Chem. Phys. Lett. 2000 325(1-3), 93-98
     doi.org/10.1016/s0009-2614(00)00662-x

Timings for individual modules:

Sum of individual times          ...     2608.248 sec (=  43.471 min)
Startup calculation              ...        1.367 sec (=   0.023 min)   0.1 %
SCF iterations                   ...      119.173 sec (=   1.986 min)   4.6 %
Property integrals               ...        0.378 sec (=   0.006 min)   0.0 %
Property calculations            ...        0.391 sec (=   0.007 min)   0.0 %
MDCI module                      ...     2486.939 sec (=  41.449 min)  95.3 %
                             ****ORCA TERMINATED NORMALLY****
TOTAL RUN TIME: 0 days 0 hours 43 minutes 28 seconds 506 msec
