&FCI NORB=9,NELEC=0,MS2=0
ORBSYM=1,1,1,1,
ISYM=1,
/
      4.43050212814771957048e-02 	 1 1 1 1
     -1.14962228608814456712e-04 	 1 2 1 1
     -4.46215789296744956560e-05 	 1 3 1 1
     -9.83411581794245382923e-04 	 1 4 1 1
     -7.97830357768565122563e-05 	 1 5 1 1
      6.61892133716386024851e-04 	 1 6 1 1
      3.18909140794452084650e-04 	 1 7 1 1
      8.51575329399552127070e-05 	 1 8 1 1
     -1.09831047344082269844e-03 	 1 9 1 1
     -1.14962228608813846848e-04 	 2 1 1 1
     -7.61990560578994502450e-02 	 2 2 1 1
     -5.78490529181110429567e-05 	 2 3 1 1
      7.68346699448188216741e-05 	 2 4 1 1
      8.19656537684999809620e-04 	 2 5 1 1
      9.26764838446293248535e-05 	 2 6 1 1
      3.77737175592379400852e-04 	 2 7 1 1
     -5.47157767369736702801e-04 	 2 8 1 1
      8.59818457139274561305e-06 	 2 9 1 1
     -4.46215789296805875170e-05 	 3 1 1 1
     -5.78490529181112462446e-05 	 3 2 1 1
      3.95974761240058328871e-02 	 3 3 1 1
     -4.90054430979943757285e-04 	 3 4 1 1
     -6.02731109845104108796e-05 	 3 5 1 1
     -5.76721830564096214593e-04 	 3 6 1 1
     -4.78259098438141728310e-04 	 3 7 1 1
     -3.34147828285622094263e-05 	 3 8 1 1
     -8.74461064929609501730e-05 	 3 9 1 1
     -9.83411581794249936572e-04 	 4 1 1 1
      7.68346699448147017059e-05 	 4 2 1 1
     -4.90054430979944516227e-04 	 4 3 1 1
      4.63078037217483189092e-03 	 4 4 1 1
      1.01994019937489874793e-03 	 4 5 1 1
     -6.52314665306319018019e-04 	 4 6 1 1
     -4.29605972272951498227e-04 	 4 7 1 1
      9.32634365526809993967e-05 	 4 8 1 1
     -1.39814577382037973302e-04 	 4 9 1 1
     -7.97830357768574338281e-05 	 5 1 1 1
      8.19656537685019542100e-04 	 5 2 1 1
     -6.02731109845104989710e-05 	 5 3 1 1
      1.01994019937488877327e-03 	 5 4 1 1
     -2.78125092925073646999e-02 	 5 5 1 1
      9.20592792424446418537e-06 	 5 6 1 1
      6.50658169078119591293e-05 	 5 7 1 1
     -1.98308729297494424054e-04 	 5 8 1 1
      4.17511038188262740591e-04 	 5 9 1 1
      6.61892133716397517394e-04 	 6 1 1 1
      9.26764838446293384060e-05 	 6 2 1 1
     -5.76721830564091552523e-04 	 6 3 1 1
     -6.52314665306317283296e-04 	 6 4 1 1
      9.20592792424270743904e-06 	 6 5 1 1
      8.08247520413048758936e-02 	 6 6 1 1
     -2.00018242618094880137e-04 	 6 7 1 1
     -1.99327896747616278850e-05 	 6 8 1 1
     -1.24654929783624173400e-04 	 6 9 1 1
      3.18909140794453060432e-04 	 7 1 1 1
      3.77737175592348392670e-04 	 7 2 1 1
     -4.78259098438141131999e-04 	 7 3 1 1
     -4.29605972272941794617e-04 	 7 4 1 1
      6.50658169078167431714e-05 	 7 5 1 1
     -2.00018242618095801709e-04 	 7 6 1 1
     -3.70340834628812981544e-02 	 7 7 1 1
     -8.35605196933084321334e-04 	 7 8 1 1
      9.34528140047329101796e-04 	 7 9 1 1
      8.51575329399548061312e-05 	 8 1 1 1
     -5.47157767369689540006e-04 	 8 2 1 1
     -3.34147828285622975177e-05 	 8 3 1 1
      9.32634365526753073353e-05 	 8 4 1 1
     -1.98308729297474447629e-04 	 8 5 1 1
     -1.99327896747614957478e-05 	 8 6 1 1
     -8.35605196933082911871e-04 	 8 7 1 1
     -7.18734730549912131936e-02 	 8 8 1 1
     -7.46707575468210510428e-05 	 8 9 1 1
     -1.09831047344082465000e-03 	 9 1 1 1
      8.59818457140438045761e-06 	 9 2 1 1
     -8.74461064929606384649e-05 	 9 3 1 1
     -1.39814577382040629598e-04 	 9 4 1 1
      4.17511038188266047407e-04 	 9 5 1 1
     -1.24654929783621300264e-04 	 9 6 1 1
      9.34528140047329860737e-04 	 9 7 1 1
     -7.46707575468041781465e-05 	 9 8 1 1
      1.21543055530835483746e-02 	 9 9 1 1
      0.00000000000000000000e+00 	 0 0 0 0
