&FCI NORB=9,NELEC=0,MS2=0
ORBSYM=1,1,1,1,
ISYM=1,
/
      7.86342050369755463102e-01 	 1 1 1 1
      3.60418352785299661665e-04 	 1 1 2 1
      3.51294711778043500239e-02 	 1 1 2 2
     -9.08587401355029594500e-04 	 1 1 3 1
     -1.27852380749904012431e-04 	 1 1 3 2
      4.27633796684252831533e-01 	 1 1 3 3
     -4.53590039786273217098e-03 	 1 1 4 1
      6.03905620677999623210e-04 	 1 1 4 2
     -4.98412535408021724337e-03 	 1 1 4 3
      3.21139492048202357388e-01 	 1 1 4 4
      4.07552379994984795720e-04 	 1 1 5 1
      1.57741976715797304134e-03 	 1 1 5 2
     -2.84464619239781257073e-04 	 1 1 5 3
      1.86723504354584322190e-03 	 1 1 5 4
      9.99448384473097944936e-02 	 1 1 5 5
      1.73549857371433995622e-03 	 1 1 6 1
      3.27868856429018779887e-04 	 1 1 6 2
      5.31042068170600907451e-03 	 1 1 6 3
      3.45389388221854342492e-03 	 1 1 6 4
      6.26969249828730762356e-05 	 1 1 6 5
      4.82859241415226736471e-01 	 1 1 6 6
      5.67327759306020425190e-03 	 1 1 7 1
     -8.66022774314066027916e-04 	 1 1 7 2
     -2.39991887978513408416e-03 	 1 1 7 3
     -1.54510458585725100195e-03 	 1 1 7 4
      8.82482003572591629584e-04 	 1 1 7 5
     -2.44595893340087951282e-04 	 1 1 7 6
      1.52962025598499723467e-01 	 1 1 7 7
      6.33416613854587422401e-04 	 1 1 8 1
     -1.89259244090450042507e-03 	 1 1 8 2
     -7.80786542589773514388e-05 	 1 1 8 3
     -1.41462218619528698124e-03 	 1 1 8 4
     -1.42529637243943470282e-03 	 1 1 8 5
      6.62067450640864389060e-06 	 1 1 8 6
     -2.06262947995685362590e-03 	 1 1 8 7
      2.47801217391983158445e-02 	 1 1 8 8
     -6.71731298161687157694e-03 	 1 1 9 1
     -7.83804690039578244413e-04 	 1 1 9 2
     -9.38033316616943474214e-05 	 1 1 9 3
      7.82363744497319916864e-04 	 1 1 9 4
      1.93128855530123877404e-03 	 1 1 9 5
     -1.92625294396156498955e-03 	 1 1 9 6
      5.72897908989896623849e-03 	 1 1 9 7
      8.43285194752184472794e-04 	 1 1 9 8
      2.18851512033488099229e-01 	 1 1 9 9
      3.60418352785302263750e-04 	 2 1 1 1
      2.38376344836388179467e-05 	 2 1 2 1
      1.60081613688277065756e-03 	 2 1 2 2
      1.11315236198084732558e-04 	 2 1 3 1
      1.47639852135147123306e-06 	 2 1 3 2
     -6.88867795683120644895e-04 	 2 1 3 3
     -4.87025279293612468282e-05 	 2 1 4 1
      2.54481634718202487952e-05 	 2 1 4 2
     -2.80127951668474456110e-05 	 2 1 4 3
     -1.08461849491091840195e-04 	 2 1 4 4
     -1.46845659404577206032e-06 	 2 1 5 1
      2.13339300187540188182e-06 	 2 1 5 2
     -9.71106369163578608101e-08 	 2 1 5 3
      1.08990060676583269759e-05 	 2 1 5 4
     -1.03357506635211722447e-05 	 2 1 5 5
      4.47665952128408725945e-05 	 2 1 6 1
     -6.64837361511231175699e-06 	 2 1 6 2
      7.21216275457772766313e-06 	 2 1 6 3
     -4.94470400417679862518e-06 	 2 1 6 4
     -6.46908064569610101249e-07 	 2 1 6 5
      3.58076124242103074544e-06 	 2 1 6 6
     -7.86702300288540483917e-06 	 2 1 7 1
      1.03986774662639337090e-04 	 2 1 7 2
      1.00672734735307457251e-05 	 2 1 7 3
      1.14964521403197560264e-04 	 2 1 7 4
      1.95826250299313902066e-06 	 2 1 7 5
      5.07596278716614719045e-07 	 2 1 7 6
      2.61984044972496908643e-04 	 2 1 7 7
      2.30355824841248515257e-06 	 2 1 8 1
      5.10731018550270680629e-05 	 2 1 8 2
      6.76139699429968626184e-07 	 2 1 8 3
      3.05319961884939779754e-06 	 2 1 8 4
      3.77030417397795079067e-05 	 2 1 8 5
     -8.26561934557713106729e-09 	 2 1 8 6
      4.77009179832863715017e-05 	 2 1 8 7
      3.17251350992848774220e-04 	 2 1 8 8
     -1.99975927417356299088e-05 	 2 1 9 1
      1.90484832420031397556e-05 	 2 1 9 2
     -1.06090896514563428504e-06 	 2 1 9 3
     -2.66878105167793737784e-06 	 2 1 9 4
      2.86344482443554454183e-05 	 2 1 9 5
     -2.03823730653206653901e-06 	 2 1 9 6
     -1.49460336479965904887e-05 	 2 1 9 7
      3.69188958103949880956e-06 	 2 1 9 8
     -1.54530129874366983994e-04 	 2 1 9 9
      3.51294711778042667571e-02 	 2 2 1 1
      1.60081613688276176710e-03 	 2 2 2 1
      6.93995767274671382374e-01 	 2 2 2 2
      8.91906905995106880428e-05 	 2 2 3 1
      9.45277541146683733964e-05 	 2 2 3 2
      3.44271253383962444472e-02 	 2 2 3 3
      5.15342090939352459600e-03 	 2 2 4 1
      1.94748105786695887599e-03 	 2 2 4 2
      1.46181356250105263898e-03 	 2 2 4 3
      1.89682181707792885117e-01 	 2 2 4 4
      7.67986984941001847972e-05 	 2 2 5 1
     -3.93172001513712818938e-03 	 2 2 5 2
      1.44109397190194510720e-04 	 2 2 5 3
     -3.49999012238281191622e-03 	 2 2 5 4
      2.57369013087411446783e-01 	 2 2 5 5
     -2.46842878229661024519e-03 	 2 2 6 1
     -9.35683184483276724451e-04 	 2 2 6 2
      1.92280670025431633247e-03 	 2 2 6 3
      1.89938401214508620699e-03 	 2 2 6 4
      9.13172147014900529075e-06 	 2 2 6 5
     -7.68077276560679145234e-02 	 2 2 6 6
     -2.23738725913167658954e-03 	 2 2 7 1
      1.55616683438949444940e-02 	 2 2 7 2
      2.73323227776157452740e-03 	 2 2 7 3
     -4.41848819532195905696e-04 	 2 2 7 4
      1.14401314807344059270e-03 	 2 2 7 5
      1.30099869388633753581e-03 	 2 2 7 6
      3.83807229604057331684e-01 	 2 2 7 7
     -1.93725098876395927924e-04 	 2 2 8 1
     -1.45706300682450651945e-02 	 2 2 8 2
      2.19831419509709769747e-04 	 2 2 8 3
      6.98763283320595748535e-04 	 2 2 8 4
     -1.49919258105714802917e-03 	 2 2 8 5
      1.78203434667223778584e-04 	 2 2 8 6
      8.17343550851897665543e-03 	 2 2 8 7
      4.63022547598966771609e-01 	 2 2 8 8
      4.26845709531159089173e-03 	 2 2 9 1
      1.76877528506833633232e-03 	 2 2 9 2
      4.88151529383244200087e-04 	 2 2 9 3
      2.76467365237799238276e-03 	 2 2 9 4
     -4.61684032719329642130e-03 	 2 2 9 5
      3.48820963568046652631e-04 	 2 2 9 6
     -3.01468153051706036147e-03 	 2 2 9 7
      1.28604647604291678215e-03 	 2 2 9 8
      1.40784341755818442898e-01 	 2 2 9 9
     -9.08587401355124245350e-04 	 3 1 1 1
      1.11315236198086033601e-04 	 3 1 2 1
      8.91906905995366546848e-05 	 3 1 2 2
      5.30945570126245200426e-03 	 3 1 3 1
      3.67891012442870998225e-06 	 3 1 3 2
     -1.11242760146313037634e-02 	 3 1 3 3
     -7.62553165514434855635e-04 	 3 1 4 1
     -1.30626284381951289016e-04 	 3 1 4 2
      3.79783717286733704210e-05 	 3 1 4 3
      2.49584641969375188933e-03 	 3 1 4 4
     -4.69597837564679785943e-05 	 3 1 5 1
      4.42579707578976433118e-07 	 3 1 5 2
     -1.36173056945236041677e-05 	 3 1 5 3
      1.02341070243570049568e-04 	 3 1 5 4
      9.81067502238503353490e-04 	 3 1 5 5
      1.37152316887685339977e-03 	 3 1 6 1
     -4.46694048486962867349e-06 	 3 1 6 2
     -4.32376856606666454003e-04 	 3 1 6 3
     -1.07081531371565075996e-04 	 3 1 6 4
      1.87998073353807798631e-06 	 3 1 6 5
      3.87420158153991590899e-03 	 3 1 6 6
     -4.11848118359101631261e-04 	 3 1 7 1
      1.16080907219922043025e-04 	 3 1 7 2
      1.35010992063172249357e-04 	 3 1 7 3
      3.96031330490340962268e-04 	 3 1 7 4
      3.66801271450260829186e-05 	 3 1 7 5
      1.37422626297669057271e-05 	 3 1 7 6
     -8.14384997269421368263e-04 	 3 1 7 7
      3.10073458406212468328e-05 	 3 1 8 1
     -3.27620209830520902933e-05 	 3 1 8 2
     -2.50859123051952994174e-06 	 3 1 8 3
     -3.60023195331029378452e-05 	 3 1 8 4
     -7.73630386838296117001e-08 	 3 1 8 5
     -1.19972602315084998653e-06 	 3 1 8 6
      2.21432510950379449330e-05 	 3 1 8 7
      4.94668608686287761961e-04 	 3 1 8 8
     -2.26641554307394988213e-05 	 3 1 9 1
      2.44103052273546572437e-05 	 3 1 9 2
     -8.42764638827055812898e-05 	 3 1 9 3
      4.05668630628649702716e-04 	 3 1 9 4
      6.08871598635766695350e-05 	 3 1 9 5
     -9.43156837112175185653e-06 	 3 1 9 6
      2.86930345815964106722e-05 	 3 1 9 7
      2.22464386724124515093e-05 	 3 1 9 8
      2.37213751113831946074e-03 	 3 1 9 9
     -1.27852380749904337692e-04 	 3 2 1 1
      1.47639852135131559076e-06 	 3 2 2 1
      9.45277541146669368285e-05 	 3 2 2 2
      3.67891012443141837010e-06 	 3 2 3 1
      4.08742682799475011662e-05 	 3 2 3 2
     -3.40302216119885104703e-03 	 3 2 3 3
     -6.30693722477439975812e-05 	 3 2 4 1
      2.64190189063142267698e-05 	 3 2 4 2
     -3.18160731341865407303e-05 	 3 2 4 3
      4.81179959980817259849e-04 	 3 2 4 4
      7.54338257389001886651e-07 	 3 2 5 1
      1.43435622877694001279e-05 	 3 2 5 2
     -5.65040973702250333242e-06 	 3 2 5 3
     -2.55437076282761310944e-06 	 3 2 5 4
      1.83055325869000459337e-05 	 3 2 5 5
      7.34687601134227990252e-07 	 3 2 6 1
      1.73109348626428350870e-06 	 3 2 6 2
      2.88226124507743262091e-05 	 3 2 6 3
      1.10819178506608024800e-05 	 3 2 6 4
     -2.08539879210186019650e-06 	 3 2 6 5
     -1.70993065469008883889e-04 	 3 2 6 6
     -1.32540741005719042998e-05 	 3 2 7 1
      6.74937391572106708823e-05 	 3 2 7 2
     -4.51886053623832292889e-05 	 3 2 7 3
     -9.08615857239388259885e-06 	 3 2 7 4
     -5.81063192127511033802e-06 	 3 2 7 5
     -1.00310179072570702886e-08 	 3 2 7 6
      7.75167567950380627557e-04 	 3 2 7 7
      2.13780485327143575163e-06 	 3 2 8 1
      6.72682171332950073518e-05 	 3 2 8 2
      1.32232279913716842842e-05 	 3 2 8 3
      1.40147797744620117453e-06 	 3 2 8 4
      2.06061983752927793651e-06 	 3 2 8 5
     -9.19533920978686598003e-07 	 3 2 8 6
      5.12991604904945368899e-07 	 3 2 8 7
     -1.10536203829076718277e-04 	 3 2 8 8
      1.74497643205711877189e-05 	 3 2 9 1
     -6.11918200874613497529e-06 	 3 2 9 2
     -1.25222374224118186855e-05 	 3 2 9 3
     -9.79515249397795393640e-06 	 3 2 9 4
      2.33362990248271839330e-06 	 3 2 9 5
     -4.13229467185806137886e-06 	 3 2 9 6
      8.28476460365155923022e-06 	 3 2 9 7
     -7.57183489777855089864e-07 	 3 2 9 8
      1.22318847741004161972e-04 	 3 2 9 9
      4.27633796684252887044e-01 	 3 3 1 1
     -6.88867795683116308086e-04 	 3 3 2 1
      3.44271253383961334249e-02 	 3 3 2 2
     -1.11242760146314078468e-02 	 3 3 3 1
     -3.40302216119884671022e-03 	 3 3 3 2
      8.15825455526937637352e-01 	 3 3 3 3
     -1.69857958992184593892e-03 	 3 3 4 1
      1.48073915235034849619e-03 	 3 3 4 2
      4.40498570356076361854e-03 	 3 3 4 3
      2.20839059811488019891e-01 	 3 3 4 4
      1.89000590181320413108e-04 	 3 3 5 1
      1.44412834488252339940e-03 	 3 3 5 2
      2.98561247677402163969e-04 	 3 3 5 3
      8.78764636909898930531e-04 	 3 3 5 4
      7.61012693507236714918e-02 	 3 3 5 5
     -3.19081151546315999745e-03 	 3 3 6 1
      3.42912097080822343524e-04 	 3 3 6 2
     -8.23675745616489615383e-04 	 3 3 6 3
      1.81463375245986347287e-03 	 3 3 6 4
      4.06508396096316219578e-05 	 3 3 6 5
      3.30196917467521666723e-01 	 3 3 6 6
      4.21012531274096712952e-03 	 3 3 7 1
     -2.06230615928861080871e-03 	 3 3 7 2
      2.20409542138174947140e-03 	 3 3 7 3
     -3.71718037757543147415e-03 	 3 3 7 4
      8.77984654557014765688e-05 	 3 3 7 5
     -4.23718131109186994972e-04 	 3 3 7 6
      1.42769414447030007498e-01 	 3 3 7 7
      1.13772262232722604840e-04 	 3 3 8 1
     -9.35124919115941301458e-04 	 3 3 8 2
     -1.18932384923136594441e-03 	 3 3 8 3
     -4.74829515629257299224e-04 	 3 3 8 4
     -1.12207438365597919616e-03 	 3 3 8 5
      3.36336924727858942825e-05 	 3 3 8 6
     -1.97787358427316088683e-03 	 3 3 8 7
      1.83484906545419157453e-02 	 3 3 8 8
     -2.76261096895450471850e-03 	 3 3 9 1
     -6.99027726349235275539e-04 	 3 3 9 2
      3.24527380990754696875e-04 	 3 3 9 3
     -1.52039754833260126743e-03 	 3 3 9 4
      7.70074618898474502066e-04 	 3 3 9 5
     -1.09044391513096815098e-03 	 3 3 9 6
      3.76746501050931846544e-03 	 3 3 9 7
      4.16002193978894151214e-04 	 3 3 9 8
      1.58650967677300025471e-01 	 3 3 9 9
     -4.53590039786273477307e-03 	 4 1 1 1
     -4.87025279293464610211e-05 	 4 1 2 1
      5.15342090939347775846e-03 	 4 1 2 2
     -7.62553165514427374640e-04 	 4 1 3 1
     -6.30693722477442957368e-05 	 4 1 3 2
     -1.69857958992192812145e-03 	 4 1 3 3
      4.40709760854818537873e-03 	 4 1 4 1
     -6.98274812171272973166e-05 	 4 1 4 2
      5.08274613898888503669e-04 	 4 1 4 3
     -1.68719897584138989535e-03 	 4 1 4 4
     -4.97477944774185894370e-05 	 4 1 5 1
     -8.69479115426399735500e-06 	 4 1 5 2
      2.32194817215515432452e-05 	 4 1 5 3
     -9.78695428766806287168e-05 	 4 1 5 4
      3.71475902432906630868e-03 	 4 1 5 5
      7.44203036734693442432e-04 	 4 1 6 1
     -2.41826616875951848264e-05 	 4 1 6 2
     -6.83985979312828331830e-05 	 4 1 6 3
     -4.74310788755634947511e-04 	 4 1 6 4
      6.45158299884047883692e-05 	 4 1 6 5
     -2.92437411551253832048e-03 	 4 1 6 6
      3.07001660755217519166e-04 	 4 1 7 1
      5.76509585732845695333e-04 	 4 1 7 2
      2.09685770222428516200e-04 	 4 1 7 3
     -1.07491114424052990224e-03 	 4 1 7 4
     -1.04883793741542635059e-06 	 4 1 7 5
      1.03699940855256657053e-04 	 4 1 7 6
      3.82191784347888155460e-03 	 4 1 7 7
     -4.49126992534068587479e-05 	 4 1 8 1
     -1.81863626905525148803e-04 	 4 1 8 2
     -1.56181176531759880334e-05 	 4 1 8 3
      6.82992354708119751502e-05 	 4 1 8 4
     -1.92236265799915992955e-04 	 4 1 8 5
      1.72042167838645681838e-05 	 4 1 8 6
      8.83991391373967048571e-05 	 4 1 8 7
      4.80176155206767270311e-03 	 4 1 8 8
     -2.83826676558076966550e-04 	 4 1 9 1
     -1.14161566058715440563e-06 	 4 1 9 2
      1.00353165730414017822e-04 	 4 1 9 3
      1.09184256131753714206e-03 	 4 1 9 4
     -6.00155891320821623103e-04 	 4 1 9 5
      1.99172220503914183028e-04 	 4 1 9 6
     -1.31790350589600899255e-04 	 4 1 9 7
     -6.13350273248754434673e-05 	 4 1 9 8
      2.35941115515233721875e-03 	 4 1 9 9
      6.03905620677908983908e-04 	 4 2 1 1
      2.54481634718195813332e-05 	 4 2 2 1
      1.94748105786688818601e-03 	 4 2 2 2
     -1.30626284381967552048e-04 	 4 2 3 1
      2.64190189063158293562e-05 	 4 2 3 2
      1.48073915235031857221e-03 	 4 2 3 3
     -6.98274812171536705344e-05 	 4 2 4 1
      3.77095173502413208780e-04 	 4 2 4 2
      6.48726934290520920777e-05 	 4 2 4 3
     -1.79441682730292621003e-04 	 4 2 4 4
      1.42586331356706423319e-05 	 4 2 5 1
      8.75990611667677357812e-05 	 4 2 5 2
      8.34263307743167847484e-07 	 4 2 5 3
     -8.93174539237968646279e-05 	 4 2 5 4
     -1.21483341786911844609e-03 	 4 2 5 5
     -1.02179304785820251520e-04 	 4 2 6 1
     -1.02218573775173725826e-06 	 4 2 6 2
      7.69888382623302011860e-06 	 4 2 6 3
      5.69148849164978574283e-05 	 4 2 6 4
      7.91861325870825666267e-07 	 4 2 6 5
     -1.54555682754154360492e-04 	 4 2 6 6
      3.39416467601704702575e-05 	 4 2 7 1
      6.47900324300425029152e-04 	 4 2 7 2
      4.47461333276777300572e-05 	 4 2 7 3
     -5.06798562306589456261e-04 	 4 2 7 4
     -5.12885546740990920641e-05 	 4 2 7 5
      5.83696514018268758399e-06 	 4 2 7 6
      5.15044777844902382929e-03 	 4 2 7 7
      8.94360820270084619268e-06 	 4 2 8 1
      4.32675151633497574299e-04 	 4 2 8 2
      6.33389096961870187063e-06 	 4 2 8 3
      6.06488251735254086262e-05 	 4 2 8 4
      1.30988019120711660201e-05 	 4 2 8 5
     -3.22163188831323918584e-07 	 4 2 8 6
      8.81391111902443533848e-05 	 4 2 8 7
     -1.54729806737208307535e-03 	 4 2 8 8
     -1.56081896466526166953e-05 	 4 2 9 1
     -3.51235380764933099963e-05 	 4 2 9 2
     -1.98160878013762952355e-05 	 4 2 9 3
     -5.99532103155737917596e-04 	 4 2 9 4
      2.98783403913584520240e-05 	 4 2 9 5
     -1.95296166717328929102e-05 	 4 2 9 6
      3.08787401803934494801e-05 	 4 2 9 7
     -2.60762768160270968728e-05 	 4 2 9 8
     -2.01274240447049668212e-03 	 4 2 9 9
     -4.98412535408022418226e-03 	 4 3 1 1
     -2.80127951668437085017e-05 	 4 3 2 1
      1.46181356250104201380e-03 	 4 3 2 2
      3.79783717286777682161e-05 	 4 3 3 1
     -3.18160731341865610591e-05 	 4 3 3 2
      4.40498570356074713866e-03 	 4 3 3 3
      5.08274613898884492121e-04 	 4 3 4 1
      6.48726934290610502982e-05 	 4 3 4 2
      3.32983934516317323614e-04 	 4 3 4 3
     -4.38404712166542715607e-03 	 4 3 4 4
      8.39440814923925405144e-06 	 4 3 5 1
     -8.99904530600420421199e-06 	 4 3 5 2
      8.30258798925673682898e-06 	 4 3 5 3
     -7.35414959891254416211e-05 	 4 3 5 4
      1.55195065800584714941e-05 	 4 3 5 5
     -1.17768535478401638545e-04 	 4 3 6 1
     -3.54623171165071736279e-07 	 4 3 6 2
     -8.76383216607297936161e-05 	 4 3 6 3
     -7.00699339101007792879e-05 	 4 3 6 4
      9.80452276117571167112e-06 	 4 3 6 5
     -3.79311902008427383193e-03 	 4 3 6 6
      8.00591530720618351023e-05 	 4 3 7 1
      1.79775482251610016471e-05 	 4 3 7 2
      8.29658800992316816702e-05 	 4 3 7 3
     -2.85973854243076037150e-04 	 4 3 7 4
     -3.43367760505369678452e-05 	 4 3 7 5
      1.28808823247335259098e-06 	 4 3 7 6
      9.87903025848824644858e-04 	 4 3 7 7
     -1.17816524992416474412e-05 	 4 3 8 1
      1.66414180400306776640e-05 	 4 3 8 2
     -1.18873177585222414781e-05 	 4 3 8 3
      6.75723242498580929996e-05 	 4 3 8 4
     -1.41750622394678442006e-05 	 4 3 8 5
      5.21054202363047372408e-06 	 4 3 8 6
      1.77254087221288182826e-05 	 4 3 8 7
      1.05936797925113793811e-03 	 4 3 8 8
      3.94084449534294137545e-05 	 4 3 9 1
     -2.07650957235587023828e-06 	 4 3 9 2
     -1.59783342564992409437e-05 	 4 3 9 3
     -7.98677357684224521099e-05 	 4 3 9 4
     -1.27799500465275721502e-04 	 4 3 9 5
      3.56842143494161861592e-05 	 4 3 9 6
     -1.01978594935344768317e-04 	 4 3 9 7
     -2.32304928169011074880e-05 	 4 3 9 8
     -1.76342719413054163993e-03 	 4 3 9 9
      3.21139492048202968011e-01 	 4 4 1 1
     -1.08461849491053378123e-04 	 4 4 2 1
      1.89682181707792496539e-01 	 4 4 2 2
      2.49584641969376229767e-03 	 4 4 3 1
      4.81179959980819861934e-04 	 4 4 3 2
      2.20839059811487742335e-01 	 4 4 3 3
     -1.68719897584145494748e-03 	 4 4 4 1
     -1.79441682730242368232e-04 	 4 4 4 2
     -4.38404712166545404428e-03 	 4 4 4 3
      5.64659244998134246529e-01 	 4 4 4 4
     -1.03539479162495406581e-04 	 4 4 5 1
      7.52489229045792814773e-04 	 4 4 5 2
     -3.35932582270152661503e-04 	 4 4 5 3
     -4.73867870511611791184e-05 	 4 4 5 4
      1.96456779375719009506e-01 	 4 4 5 5
     -2.40942220192225022707e-03 	 4 4 6 1
      3.40470614659589988077e-04 	 4 4 6 2
      2.07708827458495063484e-03 	 4 4 6 3
      4.22410471620709732782e-03 	 4 4 6 4
     -4.87986312537871220422e-04 	 4 4 6 5
      2.26611268238116475571e-01 	 4 4 6 6
     -4.98524746113537114978e-03 	 4 4 7 1
      3.02251727095088299629e-03 	 4 4 7 2
     -1.13673188279788252124e-03 	 4 4 7 3
     -1.27855391385449206065e-02 	 4 4 7 4
      1.78529084778698420195e-03 	 4 4 7 5
      7.55733896235114411925e-04 	 4 4 7 6
      3.00426699812455177963e-01 	 4 4 7 7
      4.08715392923785121593e-04 	 4 4 8 1
     -3.93619435917551534904e-03 	 4 4 8 2
      2.07346735089947642114e-04 	 4 4 8 3
     -4.18284110670784099045e-03 	 4 4 8 4
     -3.88735127307276258010e-03 	 4 4 8 5
     -2.14814052091881799817e-04 	 4 4 8 6
     -1.03396812491966501660e-03 	 4 4 8 7
      1.65564313178906907797e-01 	 4 4 8 8
      4.87612567265478368678e-03 	 4 4 9 1
     -1.77497804509344500948e-03 	 4 4 9 2
      7.71493662565087045049e-04 	 4 4 9 3
      1.27058537664963416836e-02 	 4 4 9 4
     -2.91118163092804731890e-03 	 4 4 9 5
     -1.08722428135481349529e-03 	 4 4 9 6
      9.14043610608243801974e-03 	 4 4 9 7
      9.06511500908514572181e-04 	 4 4 9 8
      3.07313536238639661846e-01 	 4 4 9 9
      4.07552379994979916810e-04 	 5 1 1 1
     -1.46845659404656827129e-06 	 5 1 2 1
      7.67986984940975285019e-05 	 5 1 2 2
     -4.69597837564642109917e-05 	 5 1 3 1
      7.54338257388487525893e-07 	 5 1 3 2
      1.89000590181324424656e-04 	 5 1 3 3
     -4.97477944774200124523e-05 	 5 1 4 1
      1.42586331356679487672e-05 	 5 1 4 2
      8.39440814923857303695e-06 	 5 1 4 3
     -1.03539479162486190863e-04 	 5 1 4 4
      2.36305593585105725297e-05 	 5 1 5 1
      3.00510809796421219940e-06 	 5 1 5 2
      6.47159439539328851883e-06 	 5 1 5 3
      2.32547854810964472517e-05 	 5 1 5 4
      1.40304817265801706240e-03 	 5 1 5 5
     -1.12756707813925014373e-04 	 5 1 6 1
      8.29798978333844831859e-08 	 5 1 6 2
      6.59882694869285871915e-06 	 5 1 6 3
      3.12896722811245800856e-05 	 5 1 6 4
     -1.29758676234169258251e-06 	 5 1 6 5
     -7.46195486412832165862e-04 	 5 1 6 6
      2.30460569790739546532e-05 	 5 1 7 1
     -3.09968229072224660346e-05 	 5 1 7 2
     -1.31774788207730038295e-06 	 5 1 7 3
      4.19077938851526194682e-06 	 5 1 7 4
     -1.92355355494335639698e-05 	 5 1 7 5
     -8.82400094164958856225e-07 	 5 1 7 6
     -2.29505213686792699330e-05 	 5 1 7 7
      2.39391302585132633403e-06 	 5 1 8 1
      3.83338118968855107085e-05 	 5 1 8 2
      1.58180711609836394576e-07 	 5 1 8 3
      3.15178400876046538952e-06 	 5 1 8 4
      4.96508211128270584450e-05 	 5 1 8 5
     -5.11868261833662302377e-07 	 5 1 8 6
     -1.41677847872434466790e-06 	 5 1 8 7
      2.40803035692575134741e-04 	 5 1 8 8
      9.40748031530969979700e-06 	 5 1 9 1
     -2.20517422373857065483e-06 	 5 1 9 2
      2.31703938677069679984e-08 	 5 1 9 3
     -1.13135687734527821567e-04 	 5 1 9 4
     -1.06305899079775004992e-04 	 5 1 9 5
      8.70561053914264154781e-06 	 5 1 9 6
     -1.39519625882242602520e-05 	 5 1 9 7
     -4.46165061384632818053e-05 	 5 1 9 8
      1.03934033043519470250e-04 	 5 1 9 9
      1.57741976715795179098e-03 	 5 2 1 1
      2.13339300187272695177e-06 	 5 2 2 1
     -3.93172001513703017750e-03 	 5 2 2 2
      4.42579707579696199365e-07 	 5 2 3 1
      1.43435622877697084479e-05 	 5 2 3 2
      1.44412834488255462442e-03 	 5 2 3 3
     -8.69479115426436327324e-06 	 5 2 4 1
      8.75990611667760705854e-05 	 5 2 4 2
     -8.99904530599928972683e-06 	 5 2 4 3
      7.52489229045690791349e-04 	 5 2 4 4
      3.00510809796747327624e-06 	 5 2 5 1
      4.04407698242222686698e-04 	 5 2 5 2
     -8.30095783311688848111e-06 	 5 2 5 3
      1.10970997087091768733e-04 	 5 2 5 4
     -2.73259445359605663076e-03 	 5 2 5 5
      1.48542461379904864281e-05 	 5 2 6 1
      9.10401142856287874943e-06 	 5 2 6 2
     -1.27174309093109108424e-05 	 5 2 6 3
     -1.93107951730362996010e-05 	 5 2 6 4
     -1.55491623752399556700e-05 	 5 2 6 5
      2.46581339137154093716e-03 	 5 2 6 6
      1.41372624302609806201e-05 	 5 2 7 1
      4.03186726177251237180e-04 	 5 2 7 2
     -5.89396456381812891399e-06 	 5 2 7 3
      2.55701941151383081231e-05 	 5 2 7 4
     -4.19792751039612440506e-05 	 5 2 7 5
     -6.17885312757818061090e-06 	 5 2 7 6
      2.08862964390308910104e-04 	 5 2 7 7
      3.65579364760661363514e-05 	 5 2 8 1
      6.80664543150594041065e-04 	 5 2 8 2
      1.06956883839589342972e-05 	 5 2 8 3
      5.90340281279808380601e-05 	 5 2 8 4
      6.89307526957914809378e-04 	 5 2 8 5
     -1.20178347763746412911e-05 	 5 2 8 6
     -8.49612964080681087702e-05 	 5 2 8 7
     -8.14130646772918617482e-03 	 5 2 8 8
     -3.34522407516014998988e-05 	 5 2 9 1
      4.38045044656276531553e-05 	 5 2 9 2
     -3.38898747661990102650e-06 	 5 2 9 3
     -3.96816338815562279826e-05 	 5 2 9 4
     -3.83480318076785892459e-04 	 5 2 9 5
      2.86896381272534395224e-06 	 5 2 9 6
     -1.11809207687147915363e-05 	 5 2 9 7
      6.24024553440012636841e-05 	 5 2 9 8
      1.42784342796683887122e-03 	 5 2 9 9
     -2.84464619239784672310e-04 	 5 3 1 1
     -9.71106369166352111607e-08 	 5 3 2 1
      1.44109397190193860199e-04 	 5 3 2 2
     -1.36173056945228570846e-05 	 5 3 3 1
     -5.65040973702263038737e-06 	 5 3 3 2
      2.98561247677403031331e-04 	 5 3 3 3
      2.32194817215517736381e-05 	 5 3 4 1
      8.34263307741482463677e-07 	 5 3 4 2
      8.30258798925673344084e-06 	 5 3 4 3
     -3.35932582270149842577e-04 	 5 3 4 4
      6.47159439539324532015e-06 	 5 3 5 1
     -8.30095783311736959583e-06 	 5 3 5 2
      4.52257253363506624231e-06 	 5 3 5 3
     -6.21234081563693589333e-07 	 5 3 5 4
      7.72855966871481558922e-04 	 5 3 5 5
     -5.54800912752234556808e-06 	 5 3 6 1
     -9.39258581732179457302e-07 	 5 3 6 2
     -6.56858317621296361726e-06 	 5 3 6 3
      2.20717100244363421304e-06 	 5 3 6 4
      1.87621743761374712500e-06 	 5 3 6 5
     -3.79248480231546801489e-04 	 5 3 6 6
      6.87694067829784445227e-06 	 5 3 7 1
     -5.44668305792233643678e-06 	 5 3 7 2
      8.42897719148377191304e-06 	 5 3 7 3
      2.47543145728860034742e-06 	 5 3 7 4
     -1.00769264405351691958e-05 	 5 3 7 5
      1.16140991595561037303e-06 	 5 3 7 6
     -1.16826632346880786273e-04 	 5 3 7 7
     -1.03213077004980940738e-06 	 5 3 8 1
      9.52972305312163994794e-06 	 5 3 8 2
     -2.06662465188731994794e-06 	 5 3 8 3
      1.67523242800038727218e-06 	 5 3 8 4
     -1.63268349980957174872e-05 	 5 3 8 5
      3.23982117777394315317e-07 	 5 3 8 6
      8.38078072817369157176e-07 	 5 3 8 7
      3.61760249612686185083e-04 	 5 3 8 8
     -3.53376585982327566285e-06 	 5 3 9 1
     -1.57828869645199103573e-06 	 5 3 9 2
      2.82843323344747528137e-06 	 5 3 9 3
     -4.01797123255672814358e-05 	 5 3 9 4
     -9.57196660983651820102e-06 	 5 3 9 5
      4.74543710447097513835e-06 	 5 3 9 6
     -1.45027362439706789448e-05 	 5 3 9 7
     -1.77651038831274828698e-05 	 5 3 9 8
     -1.79999701337302275318e-04 	 5 3 9 9
      1.86723504354582674203e-03 	 5 4 1 1
      1.08990060676533752213e-05 	 5 4 2 1
     -3.49999012238280237524e-03 	 5 4 2 2
      1.02341070243583588542e-04 	 5 4 3 1
     -2.55437076282954603863e-06 	 5 4 3 2
      8.78764636909889389552e-04 	 5 4 3 3
     -9.78695428766726462783e-05 	 5 4 4 1
     -8.93174539238168410530e-05 	 5 4 4 2
     -7.35414959891266071385e-05 	 5 4 4 3
     -4.73867870510899199307e-05 	 5 4 4 4
      2.32547854810974501387e-05 	 5 4 5 1
      1.10970997087074394393e-04 	 5 4 5 2
     -6.21234081563245932420e-07 	 5 4 5 3
      4.08369732494423900732e-04 	 5 4 5 4
      1.26682707873675918370e-03 	 5 4 5 5
      1.50933415472588936109e-04 	 5 4 6 1
      1.88352119975719089134e-06 	 5 4 6 2
     -8.74585306566540778310e-06 	 5 4 6 3
     -8.61255702592373799690e-05 	 5 4 6 4
     -2.62695570603238559571e-05 	 5 4 6 5
      3.88116414176365798552e-03 	 5 4 6 6
      2.28909148258107057869e-05 	 5 4 7 1
     -1.72609739520014805617e-05 	 5 4 7 2
     -3.39881970876737844593e-05 	 5 4 7 3
      5.85960255442092886775e-04 	 5 4 7 4
      3.71492172781017805389e-05 	 5 4 7 5
     -2.57810221314501921580e-05 	 5 4 7 6
     -3.18300638439818987108e-03 	 5 4 7 7
      1.13714023540759398372e-05 	 5 4 8 1
     -3.31295217817053509128e-06 	 5 4 8 2
     -7.54548577576925538794e-07 	 5 4 8 3
      6.33072364697543499149e-05 	 5 4 8 4
      4.27833130762105646669e-04 	 5 4 8 5
     -7.02610063075893676807e-06 	 5 4 8 6
      1.35125326361431875562e-07 	 5 4 8 7
     -3.59671541491528952081e-03 	 5 4 8 8
     -6.70701144164008531551e-05 	 5 4 9 1
      5.17042460115679336063e-05 	 5 4 9 2
      3.60453517643576084407e-06 	 5 4 9 3
      5.01488616631209330361e-04 	 5 4 9 4
     -6.34146620943213550937e-04 	 5 4 9 5
      4.20134567036014970739e-05 	 5 4 9 6
      5.75264088187240902727e-05 	 5 4 9 7
     -9.23822077723386109660e-05 	 5 4 9 8
      5.61128157916763146973e-03 	 5 4 9 9
      9.99448384473098500047e-02 	 5 5 1 1
     -1.03357506635410944596e-05 	 5 5 2 1
      2.57369013087411502294e-01 	 5 5 2 2
      9.81067502238510726065e-04 	 5 5 3 1
      1.83055325868991345263e-05 	 5 5 3 2
      7.61012693507237547585e-02 	 5 5 3 3
      3.71475902432898824612e-03 	 5 5 4 1
     -1.21483341786917699301e-03 	 5 5 4 2
      1.55195065800604230580e-05 	 5 5 4 3
      1.96456779375718953995e-01 	 5 5 4 4
      1.40304817265799949833e-03 	 5 5 5 1
     -2.73259445359608698842e-03 	 5 5 5 2
      7.72855966871476788432e-04 	 5 5 5 3
      1.26682707873669152948e-03 	 5 5 5 4
      5.41833703475557260099e-01 	 5 5 5 5
     -5.42971562557859402376e-04 	 5 5 6 1
     -8.31808280286364879873e-05 	 5 5 6 2
      1.07909869395814671245e-03 	 5 5 6 3
      2.15709363165539054572e-04 	 5 5 6 4
      3.10024277121425306455e-05 	 5 5 6 5
      5.76879631297286116220e-02 	 5 5 6 6
     -2.00631067109950786062e-03 	 5 5 7 1
      3.33733209869199439271e-03 	 5 5 7 2
      4.63808007524990628667e-04 	 5 5 7 3
     -2.08130864370070388022e-03 	 5 5 7 4
     -1.84331131377471046234e-03 	 5 5 7 5
      4.54882571088796139151e-04 	 5 5 7 6
      1.99927489459812562922e-01 	 5 5 7 7
     -6.91408967631757805745e-05 	 5 5 8 1
     -1.49596673013391821827e-03 	 5 5 8 2
     -1.04187798077835192478e-04 	 5 5 8 3
      8.35200307196936643506e-04 	 5 5 8 4
     -1.56644107096423589043e-02 	 5 5 8 5
     -1.26085843600116855479e-04 	 5 5 8 6
     -4.11366373347640378738e-04 	 5 5 8 7
      3.57876335654770116879e-01 	 5 5 8 8
      2.42624348411259356528e-03 	 5 5 9 1
     -1.30114411140145594045e-03 	 5 5 9 2
      9.13720097392589679711e-04 	 5 5 9 3
      1.54916225909396132465e-03 	 5 5 9 4
     -1.67830037538975809785e-02 	 5 5 9 5
      1.73622980554220211064e-03 	 5 5 9 6
     -1.64752109685837363345e-03 	 5 5 9 7
     -6.18556052826004301726e-03 	 5 5 9 8
      2.88266669713621304094e-01 	 5 5 9 9
      1.73549857371431913954e-03 	 6 1 1 1
      4.47665952128459073583e-05 	 6 1 2 1
     -2.46842878229665274592e-03 	 6 1 2 2
      1.37152316887684819560e-03 	 6 1 3 1
      7.34687601135247394404e-07 	 6 1 3 2
     -3.19081151546312790507e-03 	 6 1 3 3
      7.44203036734643243871e-04 	 6 1 4 1
     -1.02179304785789527941e-04 	 6 1 4 2
     -1.17768535478419148410e-04 	 6 1 4 3
     -2.40942220192228969203e-03 	 6 1 4 4
     -1.12756707813916042600e-04 	 6 1 5 1
      1.48542461379842742885e-05 	 6 1 5 2
     -5.54800912752038045164e-06 	 6 1 5 3
      1.50933415472611894090e-04 	 6 1 5 4
     -5.42971562557917840873e-04 	 6 1 5 5
      5.32265251804632435334e-03 	 6 1 6 1
     -1.18443673932637442829e-05 	 6 1 6 2
      4.21614436511272825704e-04 	 6 1 6 3
      2.42634517962470828154e-05 	 6 1 6 4
      3.78537786218897279140e-06 	 6 1 6 5
      1.26883493363223950889e-02 	 6 1 6 6