&FCI NORB=9,NELEC=0,MS2=0
ORBSYM=1,1,1,1,
ISYM=1,
/
      4.43050212814769597824e-02 	 1 1 1 1
     -1.14962228609260958272e-04 	 1 2 1 1
     -4.46215789297760718471e-05 	 1 3 1 1
     -9.83411581796126907373e-04 	 1 4 1 1
     -7.97830357768728430515e-05 	 1 5 1 1
      6.61892133716926933315e-04 	 1 6 1 1
      3.18909140795210809330e-04 	 1 7 1 1
      8.51575329396944214269e-05 	 1 8 1 1
     -1.09831047344090097784e-03 	 1 9 1 1
     -1.14962228609261026034e-04 	 2 1 1 1
     -7.61990560578975489880e-02 	 2 2 1 1
     -5.78490529182383486206e-05 	 2 3 1 1
      7.68346699463327202726e-05 	 2 4 1 1
      8.19656537685316179814e-04 	 2 5 1 1
      9.26764838448615203012e-05 	 2 6 1 1
      3.77737175590850946839e-04 	 2 7 1 1
     -5.47157767368692941369e-04 	 2 8 1 1
      8.59818457313256314517e-06 	 2 9 1 1
     -4.46215789297765800668e-05 	 3 1 1 1
     -5.78490529182382130953e-05 	 3 2 1 1
      3.95974761240056802314e-02 	 3 3 1 1
     -4.90054430979614268245e-04 	 3 4 1 1
     -6.02731109844041387379e-05 	 3 5 1 1
     -5.76721830564076048432e-04 	 3 6 1 1
     -4.78259098438519030666e-04 	 3 7 1 1
     -3.34147828285410810364e-05 	 3 8 1 1
     -8.74461064927534203247e-05 	 3 9 1 1
     -9.83411581796125172650e-04 	 4 1 1 1
      7.68346699463228404803e-05 	 4 2 1 1
     -4.90054430979615027186e-04 	 4 3 1 1
      4.63078037217231914396e-03 	 4 4 1 1
      1.01994019937623556921e-03 	 4 5 1 1
     -6.52314665307688799044e-04 	 4 6 1 1
     -4.29605972272137750286e-04 	 4 7 1 1
      9.32634365514094335363e-05 	 4 8 1 1
     -1.39814577381093524790e-04 	 4 9 1 1
     -7.97830357768735342304e-05 	 5 1 1 1
      8.19656537685314445091e-04 	 5 2 1 1
     -6.02731109844038744636e-05 	 5 3 1 1
      1.01994019937623340080e-03 	 5 4 1 1
     -2.78125092925084922701e-02 	 5 5 1 1
      9.20592792435406855468e-06 	 5 6 1 1
      6.50658169080396957956e-05 	 5 7 1 1
     -1.98308729297896527534e-04 	 5 8 1 1
      4.17511038188718701814e-04 	 5 9 1 1
      6.61892133716929535400e-04 	 6 1 1 1
      9.26764838448617777993e-05 	 6 2 1 1
     -5.76721830564075831592e-04 	 6 3 1 1
     -6.52314665307689232725e-04 	 6 4 1 1
      9.20592792435470382939e-06 	 6 5 1 1
      8.08247520413047232379e-02 	 6 6 1 1
     -2.00018242618472290913e-04 	 6 7 1 1
     -1.99327896745250448065e-05 	 6 8 1 1
     -1.24654929783874840942e-04 	 6 9 1 1
      3.18909140795216230341e-04 	 7 1 1 1
      3.77737175590822649163e-04 	 7 2 1 1
     -4.78259098438518380145e-04 	 7 3 1 1
     -4.29605972272124577230e-04 	 7 4 1 1
      6.50658169080329059795e-05 	 7 5 1 1
     -2.00018242618472480649e-04 	 7 6 1 1
     -3.70340834628813606044e-02 	 7 7 1 1
     -8.35605196933187971062e-04 	 7 8 1 1
      9.34528140046598132691e-04 	 7 9 1 1
      8.51575329396943130067e-05 	 8 1 1 1
     -5.47157767368691531906e-04 	 8 2 1 1
     -3.34147828285410810364e-05 	 8 3 1 1
      9.32634365513970871840e-05 	 8 4 1 1
     -1.98308729297869097219e-04 	 8 5 1 1
     -1.99327896745247771441e-05 	 8 6 1 1
     -8.35605196933176478519e-04 	 8 7 1 1
     -7.18734730549919487164e-02 	 8 8 1 1
     -7.46707575471008429659e-05 	 8 9 1 1
     -1.09831047344090639885e-03 	 9 1 1 1
      8.59818457313407255788e-06 	 9 2 1 1
     -8.74461064927537726904e-05 	 9 3 1 1
     -1.39814577381101331046e-04 	 9 4 1 1
      4.17511038188726020179e-04 	 9 5 1 1
     -1.24654929783874569892e-04 	 9 6 1 1
      9.34528140046598891633e-04 	 9 7 1 1
     -7.46707575470903126523e-05 	 9 8 1 1
      1.21543055530831181632e-02 	 9 9 1 1
      0.00000000000000000000e+00 	 0 0 0 0
