[Molden Format]
[Title]
 Molden file created by orca_2mkl for BaseName=multipole_ORCA

[Atoms] AU
C    1   6         -1.5242212199         2.3238617059         0.0574817084 
C    2   6          1.0611488008         2.3380680812         0.0306630364 
C    3   6          2.3227642285         0.0189171979         0.0230655248 
H    4   1         -2.5828195330         4.0780874651         0.0835328304 
H    5   1          2.1564876796         4.0615326327         0.0196096314 
N    6   7          5.1279131214         0.0594238178        -0.0054768799 
O    7   8          6.1985520513        -2.0738223846        -0.0048137561 
O    8   8          6.1362233276         2.2227326906        -0.0236594090 
C    9   6         -1.4559012896        -2.3962750476         0.0763385107 
H   10   1         -2.4633322062        -4.1801296339         0.1156961204 
C   11   6          1.1286632543        -2.3358133355         0.0497825295 
H   12   1          2.2734985013        -4.0268099921         0.0527822619 
C   13   6         -2.9533989474        -0.0576237592         0.0196633185 
H   14   1         -4.5570474166        -0.0754843356         1.3255284789 
Br  15  35         -4.5541111412        -0.0931980804        -3.4460972457 
[GTO]
  1 0
s   6 1.0 
     4563.2400000000         0.7782017567
      682.0240000000         1.4486948054
      154.9730000000         2.3830893322
       44.4553000000         3.2000890123
       13.0290000000         3.0130044376
        1.8277300000         0.2475986326
s   3 1.0 
       20.9642000000         0.8006285193
        4.8033100000         2.1274198914
        1.4593300000        -0.0028679106
p   3 1.0 
       20.9642000000         2.5735922152
        4.8033100000         2.4082482228
        1.4593300000         1.8652813335
s   1 1.0 
        0.4834560000         0.4132166458
p   1 1.0 
        0.4834560000         0.5746273343
s   1 1.0 
        0.1455850000         0.1679761277
p   1 1.0 
        0.1455850000         0.1281846070
d   1 1.0 
        0.6260000000         1.2559581449

  2 0
s   6 1.0 
     4563.2400000000         0.7782017567
      682.0240000000         1.4486948054
      154.9730000000         2.3830893322
       44.4553000000         3.2000890123
       13.0290000000         3.0130044376
        1.8277300000         0.2475986326
s   3 1.0 
       20.9642000000         0.8006285193
        4.8033100000         2.1274198914
        1.4593300000        -0.0028679106
p   3 1.0 
       20.9642000000         2.5735922152
        4.8033100000         2.4082482228
        1.4593300000         1.8652813335
s   1 1.0 
        0.4834560000         0.4132166458
p   1 1.0 
        0.4834560000         0.5746273343
s   1 1.0 
        0.1455850000         0.1679761277
p   1 1.0 
        0.1455850000         0.1281846070
d   1 1.0 
        0.6260000000         1.2559581449

  3 0
s   6 1.0 
     4563.2400000000         0.7782017567
      682.0240000000         1.4486948054
      154.9730000000         2.3830893322
       44.4553000000         3.2000890123
       13.0290000000         3.0130044376
        1.8277300000         0.2475986326
s   3 1.0 
       20.9642000000         0.8006285193
        4.8033100000         2.1274198914
        1.4593300000        -0.0028679106
p   3 1.0 
       20.9642000000         2.5735922152
        4.8033100000         2.4082482228
        1.4593300000         1.8652813335
s   1 1.0 
        0.4834560000         0.4132166458
p   1 1.0 
        0.4834560000         0.5746273343
s   1 1.0 
        0.1455850000         0.1679761277
p   1 1.0 
        0.1455850000         0.1281846070
d   1 1.0 
        0.6260000000         1.2559581449

  4 0
s   3 1.0 
       33.8650000000         0.2550693200
        5.0947900000         0.4601086622
        1.1587900000         0.6783214465
s   1 1.0 
        0.3258400000         0.3073713539
s   1 1.0 
        0.1027410000         0.1293355558

  5 0
s   3 1.0 
       33.8650000000         0.2550693200
        5.0947900000         0.4601086622
        1.1587900000         0.6783214465
s   1 1.0 
        0.3258400000         0.3073713539
s   1 1.0 
        0.1027410000         0.1293355558

  6 0
s   6 1.0 
     6293.4800000000         0.9919682097
      949.0440000000         1.8232397297
      218.7760000000         2.9798906407
       63.6916000000         4.0000070270
       18.8282000000         3.8810076896
        2.7202300000         0.3867643344
s   3 1.0 
       30.6331000000         1.0385011571
        7.0261400000         2.8347944051
        2.1120500000        -0.0032080030
p   3 1.0 
       30.6331000000         3.9356156190
        7.0261400000         3.8709940235
        2.1120500000         2.9672707578
s   1 1.0 
        0.6840090000         0.5360514243
p   1 1.0 
        0.6840090000         0.8866809093
s   1 1.0 
        0.2008780000         0.2138500588
p   1 1.0 
        0.2008780000         0.1916926925
d   1 1.0 
        0.9130000000         2.4310502970

  7 0
s   6 1.0 
     8588.5000000000         1.2050128859
     1297.2300000000         2.2162047744
      299.2960000000         3.6274524983
       87.3771000000         4.8884523076
       25.6789000000         4.8357205177
        3.7400400000         0.5382294948
s   3 1.0 
       42.1175000000         1.3419577961
        9.6283700000         3.5871143115
        2.8533200000        -0.0051234679
p   3 1.0 
       42.1175000000         5.5840175343
        9.6283700000         5.7333656931
        2.8533200000         4.3329547351
s   1 1.0 
        0.9056610000         0.6616591794
p   1 1.0 
        0.9056610000         1.2593521004
s   1 1.0 
        0.2556110000         0.2562092156
p   1 1.0 
        0.2556110000         0.2590684413
d   1 1.0 
        1.2920000000         4.4635405283

  8 0
s   6 1.0 
     8588.5000000000         1.2050128859
     1297.2300000000         2.2162047744
      299.2960000000         3.6274524983
       87.3771000000         4.8884523076
       25.6789000000         4.8357205177
        3.7400400000         0.5382294948
s   3 1.0 
       42.1175000000         1.3419577961
        9.6283700000         3.5871143115
        2.8533200000        -0.0051234679
p   3 1.0 
       42.1175000000         5.5840175343
        9.6283700000         5.7333656931
        2.8533200000         4.3329547351
s   1 1.0 
        0.9056610000         0.6616591794
p   1 1.0 
        0.9056610000         1.2593521004
s   1 1.0 
        0.2556110000         0.2562092156
p   1 1.0 
        0.2556110000         0.2590684413
d   1 1.0 
        1.2920000000         4.4635405283

  9 0
s   6 1.0 
     4563.2400000000         0.7782017567
      682.0240000000         1.4486948054
      154.9730000000         2.3830893322
       44.4553000000         3.2000890123
       13.0290000000         3.0130044376
        1.8277300000         0.2475986326
s   3 1.0 
       20.9642000000         0.8006285193
        4.8033100000         2.1274198914
        1.4593300000        -0.0028679106
p   3 1.0 
       20.9642000000         2.5735922152
        4.8033100000         2.4082482228
        1.4593300000         1.8652813335
s   1 1.0 
        0.4834560000         0.4132166458
p   1 1.0 
        0.4834560000         0.5746273343
s   1 1.0 
        0.1455850000         0.1679761277
p   1 1.0 
        0.1455850000         0.1281846070
d   1 1.0 
        0.6260000000         1.2559581449

 10 0
s   3 1.0 
       33.8650000000         0.2550693200
        5.0947900000         0.4601086622
        1.1587900000         0.6783214465
s   1 1.0 
        0.3258400000         0.3073713539
s   1 1.0 
        0.1027410000         0.1293355558

 11 0
s   6 1.0 
     4563.2400000000         0.7782017567
      682.0240000000         1.4486948054
      154.9730000000         2.3830893322
       44.4553000000         3.2000890123
       13.0290000000         3.0130044376
        1.8277300000         0.2475986326
s   3 1.0 
       20.9642000000         0.8006285193
        4.8033100000         2.1274198914
        1.4593300000        -0.0028679106
p   3 1.0 
       20.9642000000         2.5735922152
        4.8033100000         2.4082482228
        1.4593300000         1.8652813335
s   1 1.0 
        0.4834560000         0.4132166458
p   1 1.0 
        0.4834560000         0.5746273343
s   1 1.0 
        0.1455850000         0.1679761277
p   1 1.0 
        0.1455850000         0.1281846070
d   1 1.0 
        0.6260000000         1.2559581449

 12 0
s   3 1.0 
       33.8650000000         0.2550693200
        5.0947900000         0.4601086622
        1.1587900000         0.6783214465
s   1 1.0 
        0.3258400000         0.3073713539
s   1 1.0 
        0.1027410000         0.1293355558

 13 0
s   6 1.0 
     4563.2400000000         0.7782017567
      682.0240000000         1.4486948054
      154.9730000000         2.3830893322
       44.4553000000         3.2000890123
       13.0290000000         3.0130044376
        1.8277300000         0.2475986326
s   3 1.0 
       20.9642000000         0.8006285193
        4.8033100000         2.1274198914
        1.4593300000        -0.0028679106
p   3 1.0 
       20.9642000000         2.5735922152
        4.8033100000         2.4082482228
        1.4593300000         1.8652813335
s   1 1.0 
        0.4834560000         0.4132166458
p   1 1.0 
        0.4834560000         0.5746273343
s   1 1.0 
        0.1455850000         0.1679761277
p   1 1.0 
        0.1455850000         0.1281846070
d   1 1.0 
        0.6260000000         1.2559581449

 14 0
s   3 1.0 
       33.8650000000         0.2550693200
        5.0947900000         0.4601086622
        1.1587900000         0.6783214465
s   1 1.0 
        0.3258400000         0.3073713539
s   1 1.0 
        0.1027410000         0.1293355558

 15 0
s   6 1.0 
   439700.0000000000         9.8937057519
    66030.0000000000        18.4506788676
    15140.0000000000        31.0497697594
     4317.0000000000        48.8881377722
     1414.0000000000        64.8477979285
      523.9000000000        42.2450103660
s   3 1.0 
      523.9000000000        14.2906793292
      207.7000000000        24.0831278228
       86.5400000000         5.1325420588
s   1 1.0 
       30.5200000000         9.2544047359
s   1 1.0 
       12.9800000000         4.8737821336
s   1 1.0 
        4.4120000000         2.1696352092
s   1 1.0 
        1.8620000000         1.1360432084
s   1 1.0 
        0.3932000000         0.3538915754
s   1 1.0 
        0.1400000000         0.1631195892
p   3 1.0 
     2957.0000000000       691.8744780168
      700.3000000000       925.3327632309
      224.6000000000      1068.8307322950
p   3 1.0 
       82.5900000000       122.0792753214
       33.1900000000        57.5806871669
       14.2000000000        10.1761701964
p   3 1.0 
       14.2000000000         3.1297363542
        7.4380000000         6.5381679907
        3.5260000000         4.1662757743
p   1 1.0 
        1.5950000000         2.5550002510
p   1 1.0 
        0.8462000000         1.1568614894
p   1 1.0 
        0.3186000000         0.3411907922
p   1 1.0 
        0.1096000000         0.0898883235
d   4 1.0 
      134.8000000000       278.3564765972
       36.3900000000       207.4951933729
       12.1600000000        96.1835861143
        4.3410000000        22.4900486258
d   1 1.0 
        1.5350000000         6.0347564590
d   1 1.0 
        0.4510000000         0.7075856746

[5D]
[7F]
[9G]
[MO]
 Sym=     1a
 Ene= -4.90228053107241E+02
 Spin= Alpha
 Occup= 2.000000
  1      -0.000000016518
  2       0.000000045029
  3       0.000000017285
  4       0.000000017519
  5      -0.000000008229
  6      -0.000000477538
  7       0.000000010852
  8      -0.000000036672
  9       0.000000058009
 10       0.000005283033
 11       0.000000739064
 12      -0.000002684200
 13      -0.000000663344
 14      -0.000000083296
 15       0.000000059826
 16       0.000000092821
 17       0.000000025207
 18       0.000000072751
 19      -0.000000000571
 20       0.000000001598
 21      -0.000000041889
 22      -0.000000020495
 23      -0.000000002576
 24       0.000000121054
 25       0.000000186934
 26       0.000000066977
 27       0.000000002623
 28      -0.000003467246
 29       0.000001020690
 30       0.000001720027
 31       0.000000249569
 32       0.000000040834
 33      -0.000000017631
 34      -0.000000008303
 35      -0.000000040759
 36      -0.000000002792
 37      -0.000000005365
 38       0.000000013846
 39      -0.000000006954
 40      -0.000000000169
 41      -0.000000019061
 42      -0.000000115852
 43      -0.000000002849
 44       0.000000000197
 45       0.000000069204
 46       0.000003325752
 47      -0.000001289738
 48      -0.000000021972
 49      -0.000000253394
 50      -0.000000013862
 51      -0.000000004196
 52      -0.000000000209
 53      -0.000000014660
 54      -0.000000000392
 55      -0.000000001181
 56       0.000000081987
 57       0.000000661419
 58       0.000000026268
 59      -0.000000275564
 60      -0.000000298600
 61       0.000000001030
 62      -0.000000002863
 63       0.000000002113
 64       0.000000000068
 65       0.000000005258
 66       0.000000016438
 67      -0.000000009323
 68      -0.000000000292
 69      -0.000000019177
 70       0.000000130758
 71       0.000000103240
 72       0.000000002646
 73       0.000000089912
 74       0.000000005093
 75      -0.000000004384
 76      -0.000000000066
 77      -0.000000009339
 78      -0.000000000292
 79       0.000000000786
 80      -0.000000002515
 81       0.000000000899
 82      -0.000000000872
 83      -0.000000002720
 84       0.000000014546
 85      -0.000000004134
 86       0.000000003332
 87       0.000000008008
 88      -0.000000045244
 89       0.000000003014
 90      -0.000000029113
 91      -0.000000028373
 92       0.000000004298
 93       0.000000001095
 94      -0.000000002638
 95       0.000000001901
 96      -0.000000003514
 97       0.000000000789
 98      -0.000000002520
 99       0.000000000864
100       0.000000000872
101      -0.000000002725
102       0.000000014559
103      -0.000000003992
104      -0.000000003373
105       0.000000008031
106      -0.000000045849
107       0.000000002178
108       0.000000029149
109      -0.000000028624
110       0.000000004239
111       0.000000000987
112       0.000000002747
113       0.000000001675
114       0.000000003624
115      -0.000000016544
116       0.000000045091
117       0.000000017691
118      -0.000000017031
119      -0.000000008143
120      -0.000000477856
121       0.000000010313
122       0.000000037167
123       0.000000057941
124       0.000005285632
125       0.000000662758
126       0.000002701334
127      -0.000000684519
128      -0.000000082146
129       0.000000063010
130      -0.000000091921
131       0.000000030183
132      -0.000000070601
133      -0.000000001215
134       0.000000082511
135       0.000000661629
136      -0.000000000566
137       0.000000001580
138      -0.000000042482
139       0.000000019236
140      -0.000000002716
141       0.000000121454
142       0.000000188988
143      -0.000000061440
144       0.000000003087
145      -0.000003473542
146       0.000001070467
147      -0.000001690858
148       0.000000263767
149       0.000000040905
150      -0.000000017887
151       0.000000008077
152      -0.000000041048
153       0.000000000206
154       0.000000026334
155      -0.000000275973
156      -0.000000299104
157       0.000000020894
158      -0.000000066474
159      -0.000000028258
160      -0.000000000884
161      -0.000000132688
162       0.000000713443
163      -0.000000075944
164      -0.000000000815
165       0.000000076289
166      -0.000006074849
167      -0.000003022381
168      -0.000000042291
169       0.000000412768
170       0.000000001712
171      -0.000000134336
172      -0.000000001578
173       0.000000033746
174       0.000000000411
175      -0.000000030740
176      -0.000000184242
177      -0.000000122669
178       0.389991929032
179       0.674468060353
180       0.007583370956
181      -0.000439814977
182       0.000024690171
183      -0.000035028472
184       0.000008773233
185      -0.000003407840
186       0.000002874453
187       0.000000061831
188       0.000005557364
189       0.000001051160
190       0.000000022551
191       0.000002024610
192      -0.000000583646
193      -0.000000012437
194      -0.000001099920
195       0.000000853125
196       0.000000017837
197       0.000001533061
198      -0.000000929301
199      -0.000000019067
200      -0.000001584172
201       0.000000819884
202       0.000000016271
203       0.000001242581
204      -0.000000603491
205      -0.000000013010
206      -0.000001116433
207       0.000000743344
208       0.000000756544
209       0.000000016304
210       0.000000195671
211       0.000000008439
212      -0.000000402042
213      -0.000000421657
214      -0.000000009046
215      -0.000000127866
216      -0.000000005183
217      -0.000000021826
218       0.000000040361
219       0.000000000578
220       0.000000061991
221       0.000000001768
 Sym=     1a
 Ene= -6.53614212259853E+01
 Spin= Alpha
 Occup= 2.000000
  1       0.000004279831
  2      -0.000013258758
  3      -0.000002638426
  4      -0.000003730966
  5       0.000003057156
  6       0.000153986808
  7      -0.000012848991
  8       0.000006249819
  9      -0.000024956717
 10      -0.001699801019
 11      -0.000253969098
 12       0.000844073818
 13       0.000205202100
 14       0.000026777263
 15      -0.000018158824
 16      -0.000026176903
 17      -0.000007950359
 18      -0.000022732556
 19      -0.000000080045
 20      -0.000000022491
 21       0.000012215898
 22       0.000006518093
 23       0.000000647279
 24      -0.000045484722
 25      -0.000056254008
 26      -0.000022357535
 27       0.000001883974
 28       0.001180865979
 29      -0.000367322397
 30      -0.000590202271
 31      -0.000080340855
 32      -0.000016318472
 33       0.000005496725
 34       0.000003299240
 35       0.000013751537
 36      -0.000000831667
 37       0.000001093949
 38      -0.000003648768
 39       0.000001445517
 40       0.000000043161
 41       0.000005941165
 42       0.000039725072
 43       0.000003874198
 44      -0.000000013047
 45      -0.000019243417
 46      -0.001133776412
 47       0.000478529160
 48       0.000007909703
 49       0.000077732547
 50       0.000005989917
 51       0.000001478335
 52       0.000000086858
 53       0.000006277299
 54       0.000000175671
 55      -0.000002414159
 56      -0.000018745544
 57      -0.000209666936
 58      -0.000010136709
 59       0.000099153072
 60       0.000107551171
 61      -0.000000137432
 62       0.000000549512
 63      -0.000000871854
 64      -0.000000022469
 65      -0.000001308312
 66      -0.000002477628
 67       0.000003705325
 68       0.000000096501
 69       0.000004983412
 70      -0.000074874154
 71      -0.000028648689
 72      -0.000000750855
 73      -0.000026388931
 74      -0.000001278337
 75       0.000001362085
 76       0.000000022973
 77       0.000002993269
 78       0.000000093316
 79      -0.000000129440
 80       0.000000770715
 81      -0.000000328876
 82       0.000000239724
 83       0.000000744494
 84      -0.000005622032
 85       0.000001535372
 86      -0.000000982828
 87      -0.000002518923
 88       0.000019236069
 89      -0.000002820677
 90       0.000011882507
 91       0.000008438223
 92      -0.000001601804
 93      -0.000000340047
 94       0.000000739920
 95      -0.000000653508
 96       0.000000985037
 97      -0.000000129514
 98       0.000000771051
 99      -0.000000318679
100      -0.000000242367
101       0.000000746109
102      -0.000005624928
103       0.000001493376
104       0.000001003113
105      -0.000002526339
106       0.000019411878
107      -0.000002477741
108      -0.000011946625
109       0.000008543055
110      -0.000001584857
111      -0.000000309961
112      -0.000000778783
113      -0.000000590410
114      -0.000001022827
115       0.000004283645
116      -0.000013271731
117      -0.000002712223
118       0.000003659552
119       0.000003048870
120       0.000154063245
121      -0.000012835885
122      -0.000006725521
123      -0.000024970689
124      -0.001700552901
125      -0.000229995220
126      -0.000850096302
127       0.000211836046
128       0.000026455249
129      -0.000019065511
130       0.000025917778
131      -0.000009490021
132       0.000022054376
133      -0.000002398583
134      -0.000018928867
135      -0.000209734777
136      -0.000000081214
137      -0.000000018068
138       0.000012406862
139      -0.000006151013
140       0.000000692829
141      -0.000045601445
142      -0.000056953171
143       0.000020706252
144       0.000001725349
145       0.001182762459
146      -0.000384392259
147       0.000579606000
148      -0.000085198523
149      -0.000016329854
150       0.000005584314
151      -0.000003270430
152       0.000013752117
153       0.000001693042
154      -0.000010157348
155       0.000099281796
156       0.000107702782
157      -0.000005191102
158       0.000013727994
159       0.000002976135
160       0.000000149138
161       0.000030653528
162      -0.000183673944
163       0.000024475440
164       0.000000246163
165      -0.000030744672
166       0.001810540703
167       0.000949475365
168       0.000013466752
169      -0.000084456343
170      -0.000003182430
171       0.000038681192
172       0.000000438506
173      -0.000008792516
174      -0.000000084045
175       0.000005606911
176       0.000071469421
177       0.000031788798
178       0.128956328851
179       0.378950227921
180      -0.638330818199
181      -0.489347403722
182      -0.047219761756
183       0.007415798448
184      -0.002282070209
185       0.001191850185
186      -0.000046300882
187      -0.000000994389
188      -0.000089255906
189      -0.000385031467
190      -0.000008264159
191      -0.000741304141
192      -0.000043548882
193      -0.000000961263
194      -0.000089245671
195      -0.000012351293
196      -0.000000140062
197       0.000003909386
198       0.000072425844
199       0.000001320290
200       0.000085497071
201      -0.000157178883
202      -0.000003002724
203      -0.000208945539
204       0.000175428099
205       0.000003814417
206       0.000331175262
207      -0.000044781137
208      -0.000046717847
209      -0.000001003240
210      -0.000013420455
211      -0.000000555609
212       0.000002931145
213       0.000007369601
214       0.000000144381
215       0.000008370146
216       0.000000246866
217       0.000009037543
218      -0.000009813469
219      -0.000000122594
220      -0.000018119433
221      -0.000000506552
 Sym=     1a
 Ene= -5.87218996245286E+01
 Spin= Alpha
 Occup= 2.000000
  1      -0.000001817474
  2       0.000006247585
  3      -0.000009060004
  4      -0.000006365936
  5      -0.000007884922
  6      -0.000016287030
  7       0.000046946151
  8       0.000034106843
  9       0.000037196532
 10      -0.000183090854
 11       0.000065399305
 12       0.000179600973
 13       0.000045473288
 14      -0.000000564186
 15      -0.000001514881
 16      -0.000016867620
 17      -0.000004529391
 18       0.000000018415
 19       0.000001003207
 20      -0.000003271002
 21       0.000002980936
 22       0.000001081410
 23       0.000003031129
 24       0.000034249679
 25      -0.000016816457
 26      -0.000004940648
 27      -0.000012718231
 28      -0.000146405576
 29       0.000119776102
 30       0.000055729983
 31       0.000008958226
 32       0.000012899934
 33      -0.000000299990
 34      -0.000005603093
 35      -0.000004774062
 36       0.000007191861
 37       0.000001115119
 38      -0.000003567383
 39       0.000005352847
 40       0.000000087757
 41       0.000003652900
 42       0.000009546701
 43      -0.000023106599
 44      -0.000000356413
 45      -0.000013432797
 46       0.000104573062
 47      -0.000077517569
 48      -0.000000887124
 49       0.000025597735
 50      -0.000003078873
 51      -0.000002678138
 52      -0.000000071941
 53      -0.000001441093
 54      -0.000000068092
 55       0.000018931500
 56      -0.000065117781
 57      -0.000018844870
 58       0.000004578330
 59      -0.000021741121
 60      -0.000031328092
 61       0.000000299842
 62      -0.000001307697
 63       0.000001388302
 64       0.000000008247
 65      -0.000002439172
 66       0.000005829678
 67      -0.000005343499
 68      -0.000000036560
 69       0.000007900518
 70       0.000029630572
 71       0.000013470809
 72       0.000000058603
 73      -0.000019098419
 74      -0.000000216711
 75       0.000000087888
 76       0.000000001357
 77       0.000000533571
 78       0.000000016454
 79       0.000000145247
 80      -0.000000978840
 81       0.000000560895
 82      -0.000000070586
 83       0.000000102686
 84       0.000006632939
 85      -0.000002452799
 86       0.000000622797
 87      -0.000000380788
 88      -0.000019135295
 89       0.000007604315
 90      -0.000007112450
 91       0.000003735889
 92       0.000000897480
 93       0.000000138945
 94       0.000000583689
 95      -0.000000221242
 96      -0.000000231944
 97       0.000000145297
 98      -0.000000979203
 99       0.000000559662
100       0.000000087328
101       0.000000100388
102       0.000006635519
103      -0.000002438114
104      -0.000000696018
105      -0.000000369731
106      -0.000019100470
107       0.000007399574
108       0.000007346021
109       0.000003662199
110       0.000000908005
111       0.000000155040
112      -0.000000567781
113      -0.000000229758
114       0.000000220305
115      -0.000001811751
116       0.000006231367
117      -0.000009267045
118       0.000006068028
119      -0.000007952269
120      -0.000016122286
121       0.000047962916
122      -0.000032503911
123       0.000037452590
124      -0.000183696746
125       0.000070695317
126      -0.000177352116
127       0.000047064539
128      -0.000000797437
129      -0.000002062631
130       0.000016808312
131      -0.000004615297
132      -0.000000250181
133       0.000018899516
134      -0.000064957064
135      -0.000018832467
136       0.000001000184
137      -0.000003261756
138       0.000003003655
139      -0.000000977023
140       0.000003037459
141       0.000034178154
142      -0.000016881233
143       0.000004381849
144      -0.000012742766
145      -0.000145990627
146       0.000121243056
147      -0.000051995323
148       0.000009338754
149       0.000012816669
150      -0.000000408200
151       0.000005726847
152      -0.000004421789
153      -0.000007447363
154       0.000004576466
155      -0.000021730538
156      -0.000031301989
157       0.000000840443
158       0.000000115915
159       0.000012194689
160       0.000000249544
161       0.000017220801
162      -0.000187300647
163      -0.000073249872
164      -0.000001426799
165      -0.000084384853
166       0.000923347288
167       0.000202488575
168       0.000001838245
169      -0.000267285994
170       0.000057039902
171       0.000059303301
172       0.000001205474
173       0.000000701412
174       0.000000200691
175       0.000018173840
176      -0.000085609790
177       0.000035737785
178       0.000122830499
179       0.000364295383
180      -0.000672794431
181      -0.000393738055
182      -0.000049188418
183       0.000053686968
184       0.000011407100
185      -0.000251669810
186       0.057467891542
187       0.001241489350
188       0.112240816532
189       0.421262883657
190       0.009100627804
191       0.822773448042
192       0.014022905749
193       0.000302903847
194       0.027380375765
195      -0.004950912640
196      -0.000106792084
197      -0.009630966421
198       0.002982449379
199       0.000064154554
200       0.005759277839
201      -0.001032903917
202      -0.000021989007
203      -0.001940104941
204       0.000241434826
205       0.000005073702
206       0.000436813393
207       0.000044609748
208       0.000045796950
209       0.000000987507
210       0.000011218624
211       0.000000492228
212       0.000016006618
213       0.000018761142
214       0.000000393223
215       0.000007017615
216       0.000000270097
217      -0.000084902261
218      -0.000094548411
219      -0.000001997539
220      -0.000029432413
221      -0.000001191708
 Sym=     1a
 Ene= -5.87193867594970E+01
 Spin= Alpha
 Occup= 2.000000
  1      -0.000001646461
  2       0.000005380693
  3      -0.000004313346
  4       0.000001462998
  5      -0.000001260826
  6      -0.000035057013
  7       0.000029288112
  8       0.000004683876
  9       0.000009958873
 10       0.000143672411
 11       0.000169881364
 12      -0.000092787757
 13       0.000012961704
 14      -0.000006584066
 15      -0.000002786332
 16       0.000000401651
 17       0.000003943470
 18       0.000004384713
 19       0.000000542278
 20      -0.000001868915
 21      -0.000000774273
 22       0.000000153654
 23       0.000002660695
 24       0.000031779602
 25       0.000006381534
 26      -0.000000204795
 27      -0.000008913410
 28      -0.000479703588
 29       0.000052551902
 30       0.000205186305
 31       0.000011248715
 32       0.000012900965
 33       0.000000377031
 34      -0.000001544519
 35      -0.000007442470
 36       0.000005928221
 37       0.000000003665
 38      -0.000000012179
 39       0.000000069950
 40      -0.000002622547
 41       0.000000026953
 42      -0.000000028256
 43      -0.000000337330
 44       0.000013905433
 45      -0.000000109028
 46       0.000003018622
 47      -0.000005521444
 48       0.000308027026
 49      -0.000001227022
 50      -0.000000027665
 51       0.000000044444
 52      -0.000001203166
 53       0.000000215033
 54      -0.000007662409
 55      -0.000003088346
 56       0.000057035045
 57      -0.000047411047
 58       0.000004802979
 59      -0.000028269227
 60      -0.000025050529
 61       0.000000000614
 62      -0.000000002524
 63       0.000000048288
 64      -0.000002885464
 65       0.000000002879
 66       0.000000012950
 67      -0.000000223502
 68       0.000013696913