&FCI NORB=9,NELEC=0,MS2=0
ORBSYM=1,1,1,1,
ISYM=1,
/
      7.86342050369700285017e-01 	 1 1 1 1
      3.60418352789189724850e-04 	 1 1 2 1
      3.51294711778104146171e-02 	 1 1 2 2
     -9.08587401353995157208e-04 	 1 1 3 1
     -1.27852380749586097249e-04 	 1 1 3 2
      4.27633796684248723707e-01 	 1 1 3 3
     -4.53590039791345635278e-03 	 1 1 4 1
      6.03905620686728643320e-04 	 1 1 4 2
     -4.98412535408512477608e-03 	 1 1 4 3
      3.21139492048163055493e-01 	 1 1 4 4
      4.07552380000686669155e-04 	 1 1 5 1
      1.57741976715915568907e-03 	 1 1 5 2
     -2.84464619238520004686e-04 	 1 1 5 3
      1.86723504355566522622e-03 	 1 1 5 4
      9.99448384473064360689e-02 	 1 1 5 5
      1.73549857371516850352e-03 	 1 1 6 1
      3.27868856428774509137e-04 	 1 1 6 2
      5.31042068170657806381e-03 	 1 1 6 3
      3.45389388222180600610e-03 	 1 1 6 4
      6.26969249826190883242e-05 	 1 1 6 5
      4.82859241415222018023e-01 	 1 1 6 6
      5.67327759304994943407e-03 	 1 1 7 1
     -8.66022774317000095835e-04 	 1 1 7 2
     -2.39991887978905846235e-03 	 1 1 7 3
     -1.54510458586426687420e-03 	 1 1 7 4
      8.82482003574612799274e-04 	 1 1 7 5
     -2.44595893338210492590e-04 	 1 1 7 6
      1.52962025598493922551e-01 	 1 1 7 7
      6.33416613854792661872e-04 	 1 1 8 1
     -1.89259244090165070808e-03 	 1 1 8 2
     -7.80786542584278235677e-05 	 1 1 8 3
     -1.41462218619995447159e-03 	 1 1 8 4
     -1.42529637244153740451e-03 	 1 1 8 5
      6.62067450634482504023e-06 	 1 1 8 6
     -2.06262947995574296919e-03 	 1 1 8 7
      2.47801217391967198989e-02 	 1 1 8 8
     -6.71731298159370174283e-03 	 1 1 9 1
     -7.83804690036030734905e-04 	 1 1 9 2
     -9.38033316575553649704e-05 	 1 1 9 3
      7.82363744514529349527e-04 	 1 1 9 4
      1.93128855530346962843e-03 	 1 1 9 5
     -1.92625294396629774887e-03 	 1 1 9 6
      5.72897908990409408109e-03 	 1 1 9 7
      8.43285194751774644373e-04 	 1 1 9 8
      2.18851512033481493402e-01 	 1 1 9 9
      3.60418352789187556445e-04 	 2 1 1 1
      2.38376344836846288766e-05 	 2 1 2 1
      1.60081613688447502337e-03 	 2 1 2 2
      1.11315236198247132491e-04 	 2 1 3 1
      1.47639852134832852907e-06 	 2 1 3 2
     -6.88867795683488948373e-04 	 2 1 3 3
     -4.87025279291836070785e-05 	 2 1 4 1
      2.54481634717836061499e-05 	 2 1 4 2
     -2.80127951668734596869e-05 	 2 1 4 3
     -1.08461849490041288948e-04 	 2 1 4 4
     -1.46845659401812914009e-06 	 2 1 5 1
      2.13339300193669022127e-06 	 2 1 5 2
     -9.71106369153374772762e-08 	 2 1 5 3
      1.08990060676407747592e-05 	 2 1 5 4
     -1.03357506629528334658e-05 	 2 1 5 5
      4.47665952127520086739e-05 	 2 1 6 1
     -6.64837361512249309302e-06 	 2 1 6 2
      7.21216275462722064527e-06 	 2 1 6 3
     -4.94470400416458610415e-06 	 2 1 6 4
     -6.46908064569057200492e-07 	 2 1 6 5
      3.58076124179089244279e-06 	 2 1 6 6
     -7.86702300284014956287e-06 	 2 1 7 1
      1.03986774662531160818e-04 	 2 1 7 2
      1.00672734735362514393e-05 	 2 1 7 3
      1.14964521403217441822e-04 	 2 1 7 4
      1.95826250301434914917e-06 	 2 1 7 5
      5.07596278715325323141e-07 	 2 1 7 6
      2.61984044972672224134e-04 	 2 1 7 7
      2.30355824843525890390e-06 	 2 1 8 1
      5.10731018552140319513e-05 	 2 1 8 2
      6.76139699433383863027e-07 	 2 1 8 3
      3.05319961885056924411e-06 	 2 1 8 4
      3.77030417397859656859e-05 	 2 1 8 5
     -8.26561934744011386033e-09 	 2 1 8 6
      4.77009179833383047857e-05 	 2 1 8 7
      3.17251350994057930693e-04 	 2 1 8 8
     -1.99975927417527535269e-05 	 2 1 9 1
      1.90484832419708068139e-05 	 2 1 9 2
     -1.06090896514172099282e-06 	 2 1 9 3
     -2.66878105162274555803e-06 	 2 1 9 4
      2.86344482443407172094e-05 	 2 1 9 5
     -2.03823730652815748195e-06 	 2 1 9 6
     -1.49460336479867937057e-05 	 2 1 9 7
      3.69188958102589673098e-06 	 2 1 9 8
     -1.54530129874020527190e-04 	 2 1 9 9
      3.51294711778102480837e-02 	 2 2 1 1
      1.60081613688447068657e-03 	 2 2 2 1
      6.93995767274723673879e-01 	 2 2 2 2
      8.91906905997427073077e-05 	 2 2 3 1
      9.45277541146976468551e-05 	 2 2 3 2
      3.44271253384011849397e-02 	 2 2 3 3
      5.15342090939881116579e-03 	 2 2 4 1
      1.94748105785437324033e-03 	 2 2 4 2
      1.46181356249805481998e-03 	 2 2 4 3
      1.89682181707800517900e-01 	 2 2 4 4
      7.67986984946853558148e-05 	 2 2 5 1
     -3.93172001512408220147e-03 	 2 2 5 2
      1.44109397190312526127e-04 	 2 2 5 3
     -3.49999012238413377551e-03 	 2 2 5 4
      2.57369013087414055807e-01 	 2 2 5 5
     -2.46842878229828685543e-03 	 2 2 6 1
     -9.35683184484071769904e-04 	 2 2 6 2
      1.92280670025409211946e-03 	 2 2 6 3
      1.89938401215027411438e-03 	 2 2 6 4
      9.13172146990869187922e-06 	 2 2 6 5
     -7.68077276560614058409e-02 	 2 2 6 6
     -2.23738725913939263956e-03 	 2 2 7 1
      1.55616683438999908046e-02 	 2 2 7 2
      2.73323227776132993139e-03 	 2 2 7 3
     -4.41848819550710826196e-04 	 2 2 7 4
      1.14401314807820956437e-03 	 2 2 7 5
      1.30099869388917077292e-03 	 2 2 7 6
      3.83807229604048893989e-01 	 2 2 7 7
     -1.93725098874401646448e-04 	 2 2 8 1
     -1.45706300682274161179e-02 	 2 2 8 2
      2.19831419510175543001e-04 	 2 2 8 3
      6.98763283329255162867e-04 	 2 2 8 4
     -1.49919258106193478176e-03 	 2 2 8 5
      1.78203434666042567422e-04 	 2 2 8 6
      8.17343550852576983257e-03 	 2 2 8 7
      4.63022547598965106275e-01 	 2 2 8 8
      4.26845709531281213706e-03 	 2 2 9 1
      1.76877528506295999058e-03 	 2 2 9 2
      4.88151529383155295509e-04 	 2 2 9 3
      2.76467365237850325882e-03 	 2 2 9 4
     -4.61684032719537115058e-03 	 2 2 9 5
      3.48820963568705901762e-04 	 2 2 9 6
     -3.01468153050423121400e-03 	 2 2 9 7
      1.28604647604029474761e-03 	 2 2 9 8
      1.40784341755821829079e-01 	 2 2 9 9
     -9.08587401354021611741e-04 	 3 1 1 1
      1.11315236198252268899e-04 	 3 1 2 1
      8.91906905997623449195e-05 	 3 1 2 2
      5.30945570126324650762e-03 	 3 1 3 1
      3.67891012444586621108e-06 	 3 1 3 2
     -1.11242760146433999902e-02 	 3 1 3 3
     -7.62553165515141972292e-04 	 3 1 4 1
     -1.30626284381851840571e-04 	 3 1 4 2
      3.79783717283888689947e-05 	 3 1 4 3
      2.49584641969359966734e-03 	 3 1 4 4
     -4.69597837562459204368e-05 	 3 1 5 1
      4.42579707560303803554e-07 	 3 1 5 2
     -1.36173056946494800399e-05 	 3 1 5 3
      1.02341070243720170911e-04 	 3 1 5 4
      9.81067502238897352559e-04 	 3 1 5 5
      1.37152316887703359417e-03 	 3 1 6 1
     -4.46694048485253893674e-06 	 3 1 6 2
     -4.32376856606787884647e-04 	 3 1 6 3
     -1.07081531371618188350e-04 	 3 1 6 4
      1.87998073357428504491e-06 	 3 1 6 5
      3.87420158154076071932e-03 	 3 1 6 6
     -4.11848118359549569389e-04 	 3 1 7 1
      1.16080907219975236694e-04 	 3 1 7 2
      1.35010992063366673912e-04 	 3 1 7 3
      3.96031330490389426105e-04 	 3 1 7 4
      3.66801271450813026905e-05 	 3 1 7 5
      1.37422626297324653675e-05 	 3 1 7 6
     -8.14384997269605032111e-04 	 3 1 7 7
      3.10073458408119647712e-05 	 3 1 8 1
     -3.27620209830618277841e-05 	 3 1 8 2
     -2.50859123054512515982e-06 	 3 1 8 3
     -3.60023195331094972684e-05 	 3 1 8 4
     -7.73630387017357823259e-08 	 3 1 8 5
     -1.19972602313273978685e-06 	 3 1 8 6
      2.21432510950453513890e-05 	 3 1 8 7
      4.94668608686620937288e-04 	 3 1 8 8
     -2.26641554302264712939e-05 	 3 1 9 1
      2.44103052273886029361e-05 	 3 1 9 2
     -8.42764638830425784300e-05 	 3 1 9 3
      4.05668630629031829772e-04 	 3 1 9 4
      6.08871598636362938782e-05 	 3 1 9 5
     -9.43156837107064019443e-06 	 3 1 9 6
      2.86930345816209102531e-05 	 3 1 9 7
      2.22464386724227209367e-05 	 3 1 9 8
      2.37213751113874663640e-03 	 3 1 9 9
     -1.27852380749587777762e-04 	 3 2 1 1
      1.47639852134800792710e-06 	 3 2 2 1
      9.45277541146960476569e-05 	 3 2 2 2
      3.67891012444830058377e-06 	 3 2 3 1
      4.08742682799716517696e-05 	 3 2 3 2
     -3.40302216120038931307e-03 	 3 2 3 3
     -6.30693722477208498648e-05 	 3 2 4 1
      2.64190189063191395609e-05 	 3 2 4 2
     -3.18160731342809747395e-05 	 3 2 4 3
      4.81179959980933215271e-04 	 3 2 4 4
      7.54338257388007999366e-07 	 3 2 5 1
      1.43435622877777450965e-05 	 3 2 5 2
     -5.65040973701221527025e-06 	 3 2 5 3
     -2.55437076281471533876e-06 	 3 2 5 4
      1.83055325870689138102e-05 	 3 2 5 5
      7.34687601153074261570e-07 	 3 2 6 1
      1.73109348626698512028e-06 	 3 2 6 2
      2.88226124507765420473e-05 	 3 2 6 3
      1.10819178506802300276e-05 	 3 2 6 4
     -2.08539879209943895282e-06 	 3 2 6 5
     -1.70993065469078570984e-04 	 3 2 6 6
     -1.32540741005868374907e-05 	 3 2 7 1
      6.74937391571646193951e-05 	 3 2 7 2
     -4.51886053623988756815e-05 	 3 2 7 3
     -9.08615857242835006354e-06 	 3 2 7 4
     -5.81063192126369233389e-06 	 3 2 7 5
     -1.00310179029334964885e-08 	 3 2 7 6
      7.75167567950422586182e-04 	 3 2 7 7
      2.13780485327629009746e-06 	 3 2 8 1
      6.72682171333696140138e-05 	 3 2 8 2
      1.32232279913989621333e-05 	 3 2 8 3
      1.40147797743121885576e-06 	 3 2 8 4
      2.06061983754193980852e-06 	 3 2 8 5
     -9.19533920978712644266e-07 	 3 2 8 6
      5.12991604926230777468e-07 	 3 2 8 7
     -1.10536203828804095641e-04 	 3 2 8 8
      1.74497643205712419290e-05 	 3 2 9 1
     -6.11918200874466537313e-06 	 3 2 9 2
     -1.25222374224216324092e-05 	 3 2 9 3
     -9.79515249394268856667e-06 	 3 2 9 4
      2.33362990248737707451e-06 	 3 2 9 5
     -4.13229467185370085325e-06 	 3 2 9 6
      8.28476460368762419905e-06 	 3 2 9 7
     -7.57183489773358191947e-07 	 3 2 9 8
      1.22318847741127462864e-04 	 3 2 9 9
      4.27633796684248612685e-01 	 3 3 1 1
     -6.88867795683477997931e-04 	 3 3 2 1
      3.44271253384011571841e-02 	 3 3 2 2
     -1.11242760146435231555e-02 	 3 3 3 1
     -3.40302216120038280786e-03 	 3 3 3 2
      8.15825455526950626961e-01 	 3 3 3 3
     -1.69857958993701956517e-03 	 3 3 4 1
      1.48073915235457514994e-03 	 3 3 4 2
      4.40498570356898273837e-03 	 3 3 4 3
      2.20839059811474197614e-01 	 3 3 4 4
      1.89000590181347897633e-04 	 3 3 5 1
      1.44412834488367655683e-03 	 3 3 5 2
      2.98561247676594758611e-04 	 3 3 5 3
      8.78764636915123809220e-04 	 3 3 5 4
      7.61012693507214094124e-02 	 3 3 5 5
     -3.19081151546323112111e-03 	 3 3 6 1
      3.42912097080851725403e-04 	 3 3 6 2
     -8.23675745613589808253e-04 	 3 3 6 3
      1.81463375246061482497e-03 	 3 3 6 4
      4.06508396096664587288e-05 	 3 3 6 5
      3.30196917467521333656e-01 	 3 3 6 6
      4.21012531274088819960e-03 	 3 3 7 1
     -2.06230615929230880548e-03 	 3 3 7 2
      2.20409542137979530541e-03 	 3 3 7 3
     -3.71718037757796330306e-03 	 3 3 7 4
      8.77984654562042211162e-05 	 3 3 7 5
     -4.23718131108467681040e-04 	 3 3 7 6
      1.42769414447028231141e-01 	 3 3 7 7
      1.13772262231390242342e-04 	 3 3 8 1
     -9.35124919113404593635e-04 	 3 3 8 2
     -1.18932384923394330982e-03 	 3 3 8 3
     -4.74829515632989556783e-04 	 3 3 8 4
     -1.12207438365752960527e-03 	 3 3 8 5
      3.36336924728832962952e-05 	 3 3 8 6
     -1.97787358427271462921e-03 	 3 3 8 7
      1.83484906545405002110e-02 	 3 3 8 8
     -2.76261096895051008401e-03 	 3 3 9 1
     -6.99027726346331023180e-04 	 3 3 9 2
      3.24527380993556980020e-04 	 3 3 9 3
     -1.52039754832570465741e-03 	 3 3 9 4
      7.70074618899982627288e-04 	 3 3 9 5
     -1.09044391513344186666e-03 	 3 3 9 6
      3.76746501051157794276e-03 	 3 3 9 7
      4.16002193978494026402e-04 	 3 3 9 8
      1.58650967677297971559e-01 	 3 3 9 9
     -4.53590039791348931253e-03 	 4 1 1 1
     -4.87025279291672762833e-05 	 4 1 2 1
      5.15342090939874784838e-03 	 4 1 2 2
     -7.62553165515136876541e-04 	 4 1 3 1
     -6.30693722477202535536e-05 	 4 1 3 2
     -1.69857958993706965531e-03 	 4 1 3 3
      4.40709760854715928979e-03 	 4 1 4 1
     -6.98274812170522705262e-05 	 4 1 4 2
      5.08274613899303969941e-04 	 4 1 4 3
     -1.68719897586399898010e-03 	 4 1 4 4
     -4.97477944772311105525e-05 	 4 1 5 1
     -8.69479115425003147577e-06 	 4 1 5 2
      2.32194817215711706926e-05 	 4 1 5 3
     -9.78695428766377891784e-05 	 4 1 5 4
      3.71475902433092766697e-03 	 4 1 5 5
      7.44203036735242807673e-04 	 4 1 6 1
     -2.41826616876509195944e-05 	 4 1 6 2
     -6.83985979316320275977e-05 	 4 1 6 3
     -4.74310788755908003828e-04 	 4 1 6 4
      6.45158299883245167508e-05 	 4 1 6 5
     -2.92437411553073296766e-03 	 4 1 6 6
      3.07001660754312969293e-04 	 4 1 7 1
      5.76509585733268534180e-04 	 4 1 7 2
      2.09685770222570492475e-04 	 4 1 7 3
     -1.07491114424160738236e-03 	 4 1 7 4
     -1.04883793728891266256e-06 	 4 1 7 5
      1.03699940855334651847e-04 	 4 1 7 6
      3.82191784347900211788e-03 	 4 1 7 7
     -4.49126992534908166537e-05 	 4 1 8 1
     -1.81863626905400573974e-04 	 4 1 8 2
     -1.56181176531841568191e-05 	 4 1 8 3
      6.82992354716136613416e-05 	 4 1 8 4
     -1.92236265799927946284e-04 	 4 1 8 5
      1.72042167838291181609e-05 	 4 1 8 6
      8.83991391376930715209e-05 	 4 1 8 7
      4.80176155207218124943e-03 	 4 1 8 8
     -2.83826676557055160213e-04 	 4 1 9 1
     -1.14161566045096527199e-06 	 4 1 9 2
      1.00353165730413638351e-04 	 4 1 9 3
      1.09184256131787216053e-03 	 4 1 9 4
     -6.00155891320925272830e-04 	 4 1 9 5
      1.99172220503979668840e-04 	 4 1 9 6
     -1.31790350589637735024e-04 	 4 1 9 7
     -6.13350273248362224537e-05 	 4 1 9 8
      2.35941115514840503431e-03 	 4 1 9 9
      6.03905620686710645564e-04 	 4 2 1 1
      2.54481634717823084954e-05 	 4 2 2 1
      1.94748105785431816286e-03 	 4 2 2 2
     -1.30626284381849509537e-04 	 4 2 3 1
      2.64190189063200340277e-05 	 4 2 3 2
      1.48073915235458469092e-03 	 4 2 3 3
     -6.98274812170842680429e-05 	 4 2 4 1
      3.77095173502110553743e-04 	 4 2 4 2
      6.48726934288837290329e-05 	 4 2 4 3
     -1.79441682711395465027e-04 	 4 2 4 4
      1.42586331356378638509e-05 	 4 2 5 1
      8.75990611670239598596e-05 	 4 2 5 2
      8.34263307732230640432e-07 	 4 2 5 3
     -8.93174539238554250978e-05 	 4 2 5 4
     -1.21483341786966466715e-03 	 4 2 5 5
     -1.02179304785924836372e-04 	 4 2 6 1
     -1.02218573771748303411e-06 	 4 2 6 2
      7.69888382627349643502e-06 	 4 2 6 3
      5.69148849166047123287e-05 	 4 2 6 4
      7.91861325853875478201e-07 	 4 2 6 5
     -1.54555682747285289208e-04 	 4 2 6 6
      3.39416467599126130995e-05 	 4 2 7 1
      6.47900324299407071732e-04 	 4 2 7 2
      4.47461333275212186974e-05 	 4 2 7 3
     -5.06798562307381140687e-04 	 4 2 7 4
     -5.12885546739605987891e-05 	 4 2 7 5
      5.83696514020176869520e-06 	 4 2 7 6
      5.15044777844535575650e-03 	 4 2 7 7
      8.94360820271492896246e-06 	 4 2 8 1
      4.32675151634254726886e-04 	 4 2 8 2
      6.33389096962105916332e-06 	 4 2 8 3
      6.06488251731677303295e-05 	 4 2 8 4
      1.30988019119579041625e-05 	 4 2 8 5
     -3.22163188852080037440e-07 	 4 2 8 6
      8.81391111901432244271e-05 	 4 2 8 7
     -1.54729806737812424985e-03 	 4 2 8 8
     -1.56081896466187455418e-05 	 4 2 9 1
     -3.51235380766886832278e-05 	 4 2 9 2
     -1.98160878013347364110e-05 	 4 2 9 3
     -5.99532103155653349827e-04 	 4 2 9 4
      2.98783403912674671329e-05 	 4 2 9 5
     -1.95296166717714193568e-05 	 4 2 9 6
      3.08787401811188552724e-05 	 4 2 9 7
     -2.60762768161049493651e-05 	 4 2 9 8
     -2.01274240446434448532e-03 	 4 2 9 9
     -4.98412535408512824553e-03 	 4 3 1 1
     -2.80127951668673678260e-05 	 4 3 2 1
      1.46181356249803964115e-03 	 4 3 2 2
      3.79783717283892213604e-05 	 4 3 3 1
     -3.18160731342798905373e-05 	 4 3 3 2
      4.40498570356895498279e-03 	 4 3 3 3
      5.08274613899296922627e-04 	 4 3 4 1
      6.48726934288991924664e-05 	 4 3 4 2
      3.32983934517004870422e-04 	 4 3 4 3
     -4.38404712168206141948e-03 	 4 3 4 4
      8.39440814920725314669e-06 	 4 3 5 1
     -8.99904530598536281111e-06 	 4 3 5 2
      8.30258798922971986609e-06 	 4 3 5 3
     -7.35414959892992527819e-05 	 4 3 5 4
      1.55195065774612109798e-05 	 4 3 5 5
     -1.17768535478445548733e-04 	 4 3 6 1
     -3.54623171172236999738e-07 	 4 3 6 2
     -8.76383216608616054952e-05 	 4 3 6 3
     -7.00699339104304716160e-05 	 4 3 6 4
      9.80452276118355689027e-06 	 4 3 6 5
     -3.79311902008595868210e-03 	 4 3 6 6
      8.00591530723374392945e-05 	 4 3 7 1
      1.79775482250474450221e-05 	 4 3 7 2
      8.29658800993894195337e-05 	 4 3 7 3
     -2.85973854242695102717e-04 	 4 3 7 4
     -3.43367760506352575484e-05 	 4 3 7 5
      1.28808823241241513493e-06 	 4 3 7 6
      9.87903025843480612350e-04 	 4 3 7 7
     -1.17816524992758353850e-05 	 4 3 8 1
      1.66414180401444985634e-05 	 4 3 8 2
     -1.18873177586068211060e-05 	 4 3 8 3
      6.75723242502122476393e-05 	 4 3 8 4
     -1.41750622393458155520e-05 	 4 3 8 5
      5.21054202363616493845e-06 	 4 3 8 6
      1.77254087221404599034e-05 	 4 3 8 7
      1.05936797924845800718e-03 	 4 3 8 8
      3.94084449530988743934e-05 	 4 3 9 1
     -2.07650957233185007796e-06 	 4 3 9 2
     -1.59783342566039918142e-05 	 4 3 9 3
     -7.98677357693080826545e-05 	 4 3 9 4
     -1.27799500465269026553e-04 	 4 3 9 5
      3.56842143494867338393e-05 	 4 3 9 6
     -1.01978594935700237552e-04 	 4 3 9 7
     -2.32304928169233437969e-05 	 4 3 9 8
     -1.76342719413559488942e-03 	 4 3 9 9
      3.21139492048163277538e-01 	 4 4 1 1
     -1.08461849490013777318e-04 	 4 4 2 1
      1.89682181707799990544e-01 	 4 4 2 2
      2.49584641969363089237e-03 	 4 4 3 1
      4.81179959980935166835e-04 	 4 4 3 2
      2.20839059811474031081e-01 	 4 4 3 3
     -1.68719897586394737207e-03 	 4 4 4 1
     -1.79441682711442139931e-04 	 4 4 4 2
     -4.38404712168203192918e-03 	 4 4 4 3
      5.64659244997960052537e-01 	 4 4 4 4
     -1.03539479160449327346e-04 	 4 4 5 1
      7.52489229047204446002e-04 	 4 4 5 2
     -3.35932582269323897362e-04 	 4 4 5 3
     -4.73867870291299470280e-05 	 4 4 5 4
      1.96456779375711348967e-01 	 4 4 5 5
     -2.40942220192200649842e-03 	 4 4 6 1
      3.40470614659812845833e-04 	 4 4 6 2
      2.07708827458421337736e-03 	 4 4 6 3
      4.22410471622315045886e-03 	 4 4 6 4
     -4.87986312537340286618e-04 	 4 4 6 5
      2.26611268238098351180e-01 	 4 4 6 6
     -4.98524746114442900841e-03 	 4 4 7 1
      3.02251727095174905699e-03 	 4 4 7 2
     -1.13673188280024868406e-03 	 4 4 7 3
     -1.27855391385711964630e-02 	 4 4 7 4
      1.78529084779299740404e-03 	 4 4 7 5
      7.55733896237510281886e-04 	 4 4 7 6
      3.00426699812426478697e-01 	 4 4 7 7
      4.08715392925507430954e-04 	 4 4 8 1
     -3.93619435917208840281e-03 	 4 4 8 2
      2.07346735091034473477e-04 	 4 4 8 3
     -4.18284110670851926733e-03 	 4 4 8 4
     -3.88735127307569296173e-03 	 4 4 8 5
     -2.14814052092288863523e-04 	 4 4 8 6
     -1.03396812491487587876e-03 	 4 4 8 7
      1.65564313178905686552e-01 	 4 4 8 8
      4.87612567266339745620e-03 	 4 4 9 1
     -1.77497804509023533737e-03 	 4 4 9 2
      7.71493662566694700031e-04 	 4 4 9 3
      1.27058537665395588495e-02 	 4 4 9 4
     -2.91118163092315756710e-03 	 4 4 9 5
     -1.08722428135571988830e-03 	 4 4 9 6
      9.14043610609771746411e-03 	 4 4 9 7
      9.06511500909065780565e-04 	 4 4 9 8
      3.07313536238611073603e-01 	 4 4 9 9
      4.07552380000692632267e-04 	 5 1 1 1
     -1.46845659401800632031e-06 	 5 1 2 1
      7.67986984946819405779e-05 	 5 1 2 2
     -4.69597837562440163068e-05 	 5 1 3 1
      7.54338257387550283937e-07 	 5 1 3 2
      1.89000590181350174458e-04 	 5 1 3 3
     -4.97477944772419525743e-05 	 5 1 4 1
      1.42586331356363984839e-05 	 5 1 4 2
      8.39440814920287059822e-06 	 5 1 4 3
     -1.03539479160457824781e-04 	 5 1 4 4
      2.36305593585862769464e-05 	 5 1 5 1
      3.00510809793790843825e-06 	 5 1 5 2
      6.47159439541239758212e-06 	 5 1 5 3
      2.32547854812264329278e-05 	 5 1 5 4
      1.40304817266318306891e-03 	 5 1 5 5
     -1.12756707814033434590e-04 	 5 1 6 1
      8.29798978320623176948e-08 	 5 1 6 2
      6.59882694875074495076e-06 	 5 1 6 3
      3.12896722811352120432e-05 	 5 1 6 4
     -1.29758676235691588215e-06 	 5 1 6 5
     -7.46195486411869828014e-04 	 5 1 6 6
      2.30460569791134399411e-05 	 5 1 7 1
     -3.09968229071973328729e-05 	 5 1 7 2
     -1.31774788208189913658e-06 	 5 1 7 3
      4.19077938857396895336e-06 	 5 1 7 4
     -1.92355355494330828550e-05 	 5 1 7 5
     -8.82400094164929210072e-07 	 5 1 7 6
     -2.29505213685087113788e-05 	 5 1 7 7
      2.39391302586618668006e-06 	 5 1 8 1
      3.83338118968491357256e-05 	 5 1 8 2
      1.58180711606577541191e-07 	 5 1 8 3
      3.15178400876308907407e-06 	 5 1 8 4
      4.96508211126739013356e-05 	 5 1 8 5
     -5.11868261838311983862e-07 	 5 1 8 6
     -1.41677847872626827972e-06 	 5 1 8 7
      2.40803035694116870230e-04 	 5 1 8 8
      9.40748031526269285656e-06 	 5 1 9 1
     -2.20517422375115925849e-06 	 5 1 9 2
      2.31703938758737949780e-08 	 5 1 9 3
     -1.13135687734385492927e-04 	 5 1 9 4
     -1.06305899080144392673e-04 	 5 1 9 5
      8.70561053916416126687e-06 	 5 1 9 6
     -1.39519625882059270709e-05 	 5 1 9 7
     -4.46165061385394470079e-05 	 5 1 9 8
      1.03934033046176822670e-04 	 5 1 9 9
      1.57741976715912923454e-03 	 5 2 1 1
      2.13339300193129885656e-06 	 5 2 2 1
     -3.93172001512398418960e-03 	 5 2 2 2
      4.42579707573035555784e-07 	 5 2 3 1
      1.43435622877792731439e-05 	 5 2 3 2
      1.44412834488371558811e-03 	 5 2 3 3
     -8.69479115424092078939e-06 	 5 2 4 1
      8.75990611670177121446e-05 	 5 2 4 2
     -8.99904530597742441833e-06 	 5 2 4 3
      7.52489229047202711279e-04 	 5 2 4 4
      3.00510809793782797012e-06 	 5 2 5 1
      4.04407698242029102400e-04 	 5 2 5 2
     -8.30095783311482510885e-06 	 5 2 5 3
      1.10970997087043874102e-04 	 5 2 5 4
     -2.73259445359574134476e-03 	 5 2 5 5
      1.48542461379852144951e-05 	 5 2 6 1
      9.10401142853450653382e-06 	 5 2 6 2
     -1.27174309093117697338e-05 	 5 2 6 3
     -1.93107951730706213760e-05 	 5 2 6 4
     -1.55491623752183834349e-05 	 5 2 6 5
      2.46581339137254664309e-03 	 5 2 6 6
      1.41372624302430286038e-05 	 5 2 7 1
      4.03186726178159093870e-04 	 5 2 7 2
     -5.89396456377335814053e-06 	 5 2 7 3
      2.55701941150370571927e-05 	 5 2 7 4
     -4.19792751039648083652e-05 	 5 2 7 5
     -6.17885312756031753308e-06 	 5 2 7 6
      2.08862964394931297646e-04 	 5 2 7 7
      3.65579364760337458115e-05 	 5 2 8 1
      6.80664543149734702424e-04 	 5 2 8 2
      1.06956883839649855006e-05 	 5 2 8 3
      5.90340281276833126552e-05 	 5 2 8 4
      6.89307526958057381963e-04 	 5 2 8 5
     -1.20178347763485086306e-05 	 5 2 8 6
     -8.49612964079386414782e-05 	 5 2 8 7
     -8.14130646772495865371e-03 	 5 2 8 8
     -3.34522407516026450873e-05 	 5 2 9 1
      4.38045044657848624704e-05 	 5 2 9 2
     -3.38898747661856525554e-06 	 5 2 9 3
     -3.96816338815471342369e-05 	 5 2 9 4
     -3.83480318076446103498e-04 	 5 2 9 5
      2.86896381272534395224e-06 	 5 2 9 6
     -1.11809207687560759222e-05 	 5 2 9 7
      6.24024553441573074817e-05 	 5 2 9 8
      1.42784342796747161161e-03 	 5 2 9 9
     -2.84464619238521630989e-04 	 5 3 1 1
     -9.71106369154179983458e-08 	 5 3 2 1
      1.44109397190311441924e-04 	 5 3 2 2
     -1.36173056946487549797e-05 	 5 3 3 1
     -5.65040973701238298277e-06 	 5 3 3 2
      2.98561247676595300712e-04 	 5 3 3 3
      2.32194817215684229177e-05 	 5 3 4 1
      8.34263307731064911338e-07 	 5 3 4 2
      8.30258798922876102479e-06 	 5 3 4 3
     -3.35932582269326662078e-04 	 5 3 4 4
      6.47159439541231626695e-06 	 5 3 5 1
     -8.30095783311448798974e-06 	 5 3 5 2
      4.52257253363842557498e-06 	 5 3 5 3
     -6.21234081529184831787e-07 	 5 3 5 4
      7.72855966872651521486e-04 	 5 3 5 5
     -5.54800912749425372038e-06 	 5 3 6 1
     -9.39258581732846072232e-07 	 5 3 6 2
     -6.56858317617289811182e-06 	 5 3 6 3
      2.20717100244474763785e-06 	 5 3 6 4
      1.87621743760372820754e-06 	 5 3 6 5
     -3.79248480230641275834e-04 	 5 3 6 6
      6.87694067830347468027e-06 	 5 3 7 1
     -5.44668305789149681420e-06 	 5 3 7 2
      8.42897719146591645851e-06 	 5 3 7 3
      2.47543145727380056425e-06 	 5 3 7 4
     -1.00769264405319538587e-05 	 5 3 7 5
      1.16140991595765129892e-06 	 5 3 7 6
     -1.16826632346423917030e-04 	 5 3 7 7
     -1.03213077004928784685e-06 	 5 3 8 1
      9.52972305310005246624e-06 	 5 3 8 2
     -2.06662465188667281477e-06 	 5 3 8 3
      1.67523242802090855115e-06 	 5 3 8 4
     -1.63268349981304288973e-05 	 5 3 8 5
      3.23982117774850940074e-07 	 5 3 8 6
      8.38078072816247473796e-07 	 5 3 8 7
      3.61760249612885298812e-04 	 5 3 8 8
     -3.53376585984025909696e-06 	 5 3 9 1
     -1.57828869646037772070e-06 	 5 3 9 2
      2.82843323345381405243e-06 	 5 3 9 3
     -4.01797123255679455097e-05 	 5 3 9 4
     -9.57196661001114081936e-06 	 5 3 9 5
      4.74543710447300971149e-06 	 5 3 9 6
     -1.45027362439684190609e-05 	 5 3 9 7
     -1.77651038831516538020e-05 	 5 3 9 8
     -1.79999701336317087909e-04 	 5 3 9 9
      1.86723504355568907867e-03 	 5 4 1 1
      1.08990060676421808339e-05 	 5 4 2 1
     -3.49999012238412683662e-03 	 5 4 2 2
      1.02341070243725375082e-04 	 5 4 3 1
     -2.55437076281665419717e-06 	 5 4 3 2
      8.78764636915124568162e-04 	 5 4 3 3
     -9.78695428766610724201e-05 	 5 4 4 1
     -8.93174539238686388118e-05 	 5 4 4 2
     -7.35414959893142554295e-05 	 5 4 4 3
     -4.73867870291306246544e-05 	 5 4 4 4
      2.32547854812293094517e-05 	 5 4 5 1
      1.10970997087043088056e-04 	 5 4 5 2
     -6.21234081527881248081e-07 	 5 4 5 3
      4.08369732494575797457e-04 	 5 4 5 4
      1.26682707874093379574e-03 	 5 4 5 5
      1.50933415472470026236e-04 	 5 4 6 1
      1.88352119977756859823e-06 	 5 4 6 2
     -8.74585306561472133153e-06 	 5 4 6 3
     -8.61255702591407368979e-05 	 5 4 6 4
     -2.62695570603489145798e-05 	 5 4 6 5
      3.88116414177054266932e-03 	 5 4 6 6
      2.28909148257751304031e-05 	 5 4 7 1
     -1.72609739520526481280e-05 	 5 4 7 2
     -3.39881970877579049953e-05 	 5 4 7 3
      5.85960255442225159440e-04 	 5 4 7 4
      3.71492172782067516380e-05 	 5 4 7 5
     -2.57810221314579408154e-05 	 5 4 7 6
     -3.18300638439474037344e-03 	 5 4 7 7
      1.13714023540987436582e-05 	 5 4 8 1
     -3.31295217836450394213e-06 	 5 4 8 2
     -7.54548577561634794151e-07 	 5 4 8 3
      6.33072364693341402579e-05 	 5 4 8 4
      4.27833130761788951214e-04 	 5 4 8 5
     -7.02610063074897057842e-06 	 5 4 8 6
      1.35125326258280203245e-07 	 5 4 8 7
     -3.59671541491708929641e-03 	 5 4 8 8
     -6.70701144161085793544e-05 	 5 4 9 1
      5.17042460116454879429e-05 	 5 4 9 2
      3.60453517649276319681e-06 	 5 4 9 3
      5.01488616631859960085e-04 	 5 4 9 4
     -6.34146620943305816542e-04 	 5 4 9 5
      4.20134567035483034048e-05 	 5 4 9 6
      5.75264088190669421047e-05 	 5 4 9 7
     -9.23822077722574855384e-05 	 5 4 9 8
      5.61128157917501618757e-03 	 5 4 9 9
      9.99448384473066303579e-02 	 5 5 1 1
     -1.03357506629740431708e-05 	 5 5 2 1
      2.57369013087414111318e-01 	 5 5 2 2
      9.81067502238926842859e-04 	 5 5 3 1
      1.83055325870701267614e-05 	 5 5 3 2
      7.61012693507214649236e-02 	 5 5 3 3
      3.71475902433089470722e-03 	 5 5 4 1
     -1.21483341786968158070e-03 	 5 5 4 2
      1.55195065774721614217e-05 	 5 5 4 3
      1.96456779375711237945e-01 	 5 5 4 4
      1.40304817266318003315e-03 	 5 5 5 1
     -2.73259445359577994236e-03 	 5 5 5 2
      7.72855966872649244662e-04 	 5 5 5 3
      1.26682707874092121900e-03 	 5 5 5 4
      5.41833703475520955806e-01 	 5 5 5 5
     -5.42971562558508080536e-04 	 5 5 6 1
     -8.31808280287051857475e-05 	 5 5 6 2
      1.07909869395789496070e-03 	 5 5 6 3
      2.15709363168701401259e-04 	 5 5 6 4
      3.10024277101992744342e-05 	 5 5 6 5
      5.76879631297238099075e-02 	 5 5 6 6
     -2.00631067110266375630e-03 	 5 5 7 1
      3.33733209869359640984e-03 	 5 5 7 2
      4.63808007524622867290e-04 	 5 5 7 3
     -2.08130864370592062740e-03 	 5 5 7 4
     -1.84331131376899324745e-03 	 5 5 7 5
      4.54882571089857573078e-04 	 5 5 7 6
      1.99927489459805096672e-01 	 5 5 7 7
     -6.91408967616832814164e-05 	 5 5 8 1
     -1.49596673013430788053e-03 	 5 5 8 2
     -1.04187798077370015535e-04 	 5 5 8 3
      8.35200307202972071739e-04 	 5 5 8 4
     -1.56644107096419044067e-02 	 5 5 8 5
     -1.26085843600557881818e-04 	 5 5 8 6
     -4.11366373345409307508e-04 	 5 5 8 7
      3.57876335654764288208e-01 	 5 5 8 8
      2.42624348411495886074e-03 	 5 5 9 1
     -1.30114411139906115469e-03 	 5 5 9 2
      9.13720097392402329575e-04 	 5 5 9 3
      1.54916225910006321448e-03 	 5 5 9 4
     -1.67830037539173082539e-02 	 5 5 9 5
      1.73622980554240008595e-03 	 5 5 9 6
     -1.64752109685457979321e-03 	 5 5 9 7
     -6.18556052825877580176e-03 	 5 5 9 8
      2.88266669713610479420e-01 	 5 5 9 9
      1.73549857371513402589e-03 	 6 1 1 1
      4.47665952127546988505e-05 	 6 1 2 1
     -2.46842878229834973916e-03 	 6 1 2 2
      1.37152316887704140043e-03 	 6 1 3 1
      7.34687601154175192643e-07 	 6 1 3 2
     -3.19081151546321117179e-03 	 6 1 3 3
      7.44203036735205402698e-04 	 6 1 4 1
     -1.02179304785901851286e-04 	 6 1 4 2
     -1.17768535478459114812e-04 	 6 1 4 3
     -2.40942220192206114221e-03 	 6 1 4 4
     -1.12756707814024896498e-04 	 6 1 5 1
      1.48542461379769440654e-05 	 6 1 5 2
     -5.54800912749221575911e-06 	 6 1 5 3
      1.50933415472489650296e-04 	 6 1 5 4
     -5.42971562558548629697e-04 	 6 1 5 5
      5.32265251804684130094e-03 	 6 1 6 1
     -1.18443673933604923861e-05 	 6 1 6 2
      4.21614436511344979359e-04 	 6 1 6 3
      2.42634517959713769792e-05 	 6 1 6 4
      3.78537786213293266809e-06 	 6 1 6 5
      1.26883493363309108465e-02 	 6 1 6 6