[Molden Format]
[Atoms] (AU)
C    1    6          -3.5627646139         2.2867634838         0.0002476130
C    2    6          -0.9340667562         2.3015392524         0.0003061945
C    3    6           0.3353038562         0.0000002302         0.0003269815
H    4    1          -4.5855732101         4.0624635348        -0.0003268637
H    5    1           0.1361871938         4.0428122729         0.0001758034
N    6    7           3.1331189740         0.0000002302         0.0001795829
O    7    8           4.2036582727        -2.0493227152        -0.0002361569
O    8    8           4.2036582727         2.0493212859        -0.0004232398
C    9    6          -3.5627665036        -2.2867630234         0.0001682445
H   10    1          -4.5855769896        -4.0624611847        -0.0004780418
C   11    6          -0.9340686460        -2.3015387920         0.0002381644
H   12    1           0.1361853041        -4.0428118125         0.0000718685
C   13    6          -4.8749507511         0.0000002302        -0.0003967836
H   14    1          -6.9252450158         0.0000002302        -0.0020748604
[GTO]
  1 0
 s    6  1.00
     4563.2400000000         0.0019666500
      682.0240000000         0.0152306000
      154.9730000000         0.0761269000
       44.4553000000         0.2608010000
       13.0290000000         0.6164620000
        1.8277300000         0.2210060000
 s    3  1.00
       20.9642000000         0.1146600000
        4.8033100000         0.9199990000
        1.4593300000        -0.0030306800
 p    3  1.00
       20.9642000000         0.0402487000
        4.8033100000         0.2375940000
        1.4593300000         0.8158540000
 s    1  1.00
        0.4834560000         1.0000000000
 p    1  1.00
        0.4834560000         1.0000000000
 s    1  1.00
        0.1455850000         1.0000000000
 p    1  1.00
        0.1455850000         1.0000000000
 d    1  1.00
        0.6260000000         1.0000000000

  2 0
 s    6  1.00
     4563.2400000000         0.0019666500
      682.0240000000         0.0152306000
      154.9730000000         0.0761269000
       44.4553000000         0.2608010000
       13.0290000000         0.6164620000
        1.8277300000         0.2210060000
 s    3  1.00
       20.9642000000         0.1146600000
        4.8033100000         0.9199990000
        1.4593300000        -0.0030306800
 p    3  1.00
       20.9642000000         0.0402487000
        4.8033100000         0.2375940000
        1.4593300000         0.8158540000
 s    1  1.00
        0.4834560000         1.0000000000
 p    1  1.00
        0.4834560000         1.0000000000
 s    1  1.00
        0.1455850000         1.0000000000
 p    1  1.00
        0.1455850000         1.0000000000
 d    1  1.00
        0.6260000000         1.0000000000

  3 0
 s    6  1.00
     4563.2400000000         0.0019666500
      682.0240000000         0.0152306000
      154.9730000000         0.0761269000
       44.4553000000         0.2608010000
       13.0290000000         0.6164620000
        1.8277300000         0.2210060000
 s    3  1.00
       20.9642000000         0.1146600000
        4.8033100000         0.9199990000
        1.4593300000        -0.0030306800
 p    3  1.00
       20.9642000000         0.0402487000
        4.8033100000         0.2375940000
        1.4593300000         0.8158540000
 s    1  1.00
        0.4834560000         1.0000000000
 p    1  1.00
        0.4834560000         1.0000000000
 s    1  1.00
        0.1455850000         1.0000000000
 p    1  1.00
        0.1455850000         1.0000000000
 d    1  1.00
        0.6260000000         1.0000000000

  4 0
 s    3  1.00
       33.8650000000         0.0254938000
        5.0947900000         0.1903730000
        1.1587900000         0.8521610000
 s    1  1.00
        0.3258400000         1.0000000000
 s    1  1.00
        0.1027410000         1.0000000000

  5 0
 s    3  1.00
       33.8650000000         0.0254938000
        5.0947900000         0.1903730000
        1.1587900000         0.8521610000
 s    1  1.00
        0.3258400000         1.0000000000
 s    1  1.00
        0.1027410000         1.0000000000

  6 0
 s    6  1.00
     6293.4800000000         0.0019697900
      949.0440000000         0.0149613000
      218.7760000000         0.0735006000
       63.6916000000         0.2489370000
       18.8282000000         0.6024600000
        2.7202300000         0.2562020000
 s    3  1.00
       30.6331000000         0.1119060000
        7.0261400000         0.9216660000
        2.1120500000        -0.0025691900
 p    3  1.00
       30.6331000000         0.0383119000
        7.0261400000         0.2374030000
        2.1120500000         0.8175920000
 s    1  1.00
        0.6840090000         1.0000000000
 p    1  1.00
        0.6840090000         1.0000000000
 s    1  1.00
        0.2008780000         1.0000000000
 p    1  1.00
        0.2008780000         1.0000000000
 d    1  1.00
        0.9130000000         1.0000000000

  7 0
 s    6  1.00
     8588.5000000000         0.0018951500
     1297.2300000000         0.0143859000
      299.2960000000         0.0707320000
       87.3771000000         0.2400010000
       25.6789000000         0.5947970000
        3.7400400000         0.2808020000
 s    3  1.00
       42.1175000000         0.1138890000
        9.6283700000         0.9208110000
        2.8533200000        -0.0032744700
 p    3  1.00
       42.1175000000         0.0365114000
        9.6283700000         0.2371530000
        2.8533200000         0.8197020000
 s    1  1.00
        0.9056610000         1.0000000000
 p    1  1.00
        0.9056610000         1.0000000000
 s    1  1.00
        0.2556110000         1.0000000000
 p    1  1.00
        0.2556110000         1.0000000000
 d    1  1.00
        1.2920000000         1.0000000000

  8 0
 s    6  1.00
     8588.5000000000         0.0018951500
     1297.2300000000         0.0143859000
      299.2960000000         0.0707320000
       87.3771000000         0.2400010000
       25.6789000000         0.5947970000
        3.7400400000         0.2808020000
 s    3  1.00
       42.1175000000         0.1138890000
        9.6283700000         0.9208110000
        2.8533200000        -0.0032744700
 p    3  1.00
       42.1175000000         0.0365114000
        9.6283700000         0.2371530000
        2.8533200000         0.8197020000
 s    1  1.00
        0.9056610000         1.0000000000
 p    1  1.00
        0.9056610000         1.0000000000
 s    1  1.00
        0.2556110000         1.0000000000
 p    1  1.00
        0.2556110000         1.0000000000
 d    1  1.00
        1.2920000000         1.0000000000

  9 0
 s    6  1.00
     4563.2400000000         0.0019666500
      682.0240000000         0.0152306000
      154.9730000000         0.0761269000
       44.4553000000         0.2608010000
       13.0290000000         0.6164620000
        1.8277300000         0.2210060000
 s    3  1.00
       20.9642000000         0.1146600000
        4.8033100000         0.9199990000
        1.4593300000        -0.0030306800
 p    3  1.00
       20.9642000000         0.0402487000
        4.8033100000         0.2375940000
        1.4593300000         0.8158540000
 s    1  1.00
        0.4834560000         1.0000000000
 p    1  1.00
        0.4834560000         1.0000000000
 s    1  1.00
        0.1455850000         1.0000000000
 p    1  1.00
        0.1455850000         1.0000000000
 d    1  1.00
        0.6260000000         1.0000000000

  10 0
 s    3  1.00
       33.8650000000         0.0254938000
        5.0947900000         0.1903730000
        1.1587900000         0.8521610000
 s    1  1.00
        0.3258400000         1.0000000000
 s    1  1.00
        0.1027410000         1.0000000000

  11 0
 s    6  1.00
     4563.2400000000         0.0019666500
      682.0240000000         0.0152306000
      154.9730000000         0.0761269000
       44.4553000000         0.2608010000
       13.0290000000         0.6164620000
        1.8277300000         0.2210060000
 s    3  1.00
       20.9642000000         0.1146600000
        4.8033100000         0.9199990000
        1.4593300000        -0.0030306800
 p    3  1.00
       20.9642000000         0.0402487000
        4.8033100000         0.2375940000
        1.4593300000         0.8158540000
 s    1  1.00
        0.4834560000         1.0000000000
 p    1  1.00
        0.4834560000         1.0000000000
 s    1  1.00
        0.1455850000         1.0000000000
 p    1  1.00
        0.1455850000         1.0000000000
 d    1  1.00
        0.6260000000         1.0000000000

  12 0
 s    3  1.00
       33.8650000000         0.0254938000
        5.0947900000         0.1903730000
        1.1587900000         0.8521610000
 s    1  1.00
        0.3258400000         1.0000000000
 s    1  1.00
        0.1027410000         1.0000000000

  13 0
 s    6  1.00
     4563.2400000000         0.0019666500
      682.0240000000         0.0152306000
      154.9730000000         0.0761269000
       44.4553000000         0.2608010000
       13.0290000000         0.6164620000
        1.8277300000         0.2210060000
 s    3  1.00
       20.9642000000         0.1146600000
        4.8033100000         0.9199990000
        1.4593300000        -0.0030306800
 p    3  1.00
       20.9642000000         0.0402487000
        4.8033100000         0.2375940000
        1.4593300000         0.8158540000
 s    1  1.00
        0.4834560000         1.0000000000
 p    1  1.00
        0.4834560000         1.0000000000
 s    1  1.00
        0.1455850000         1.0000000000
 p    1  1.00
        0.1455850000         1.0000000000
 d    1  1.00
        0.6260000000         1.0000000000

  14 0
 s    3  1.00
       33.8650000000         0.0254938000
        5.0947900000         0.1903730000
        1.1587900000         0.8521610000
 s    1  1.00
        0.3258400000         1.0000000000
 s    1  1.00
        0.1027410000         1.0000000000

[5D]
[9G]

[MO]
 Sym= A
 Ene=        -2.0596438505e+01
 Spin= Alpha
 Occup=         0.0000000000e+00
  1        -8.0728500891e-08
  2         8.1767434752e-07
  3        -1.0948541032e-06
  4        -1.9319365261e-06
  5        -1.7023388009e-09
  6        -2.1072113173e-06
  7         1.6170084380e-06
  8         8.7187442786e-06
  9         5.6770374956e-09
 10        -1.2872679947e-04
 11        -2.4551395659e-04
 12        -2.4563231338e-04
 13        -5.7373693248e-08
 14         4.5424978512e-06
 15         1.2683334411e-09
 16         7.2145113050e-09
 17        -5.1253760008e-06
 18         2.7631925064e-06
 19        -5.2980219778e-07
 20         4.7778006147e-07
 21         1.9775874561e-07
 22        -1.7956775252e-06
 23         4.5719691716e-09
 24        -3.7980028357e-07
 25        -7.0434775602e-06
 26         1.1381157210e-05
 27        -1.6418415899e-08
 28        -8.7718733376e-04
 29        -6.1408485859e-04
 30         5.1671277811e-04
 31         2.5375976910e-08
 32         1.6894054553e-06
 33        -8.6920709318e-10
 34         5.1026432657e-10
 35         9.7120529494e-06
 36         1.5600135171e-05
 37        -7.5237113854e-09
 38        -2.8738910118e-09
 39         5.6482644510e-08
 40        -5.1095200144e-06
 41         8.7512131330e-10
 42        -6.0415396997e-08
 43        -9.9758559603e-08
 44         1.9029235998e-05
 45        -3.6453774917e-09
 46         1.7699421055e-06
 47        -6.5688433828e-08
 48         1.6688140855e-03
 49         5.8319495415e-09
 50        -1.4685672561e-08
 51        -3.2964228859e-09
 52        -4.0969719190e-09
 53        -1.2309982854e-07
 54         2.5878077803e-05
 55        -1.1412512078e-06
 56         2.8726554567e-05
 57         2.7571794829e-05
 58         6.0296840858e-08
 59         4.4426040281e-05
 60        -8.9946372546e-05
 61        -1.2737215021e-07
 62         1.8976693842e-07
 63        -1.7133385549e-07
 64        -6.8515268230e-05
 65         2.9414783310e-09
 66        -9.6272844333e-07
 67        -7.7552338269e-07
 68        -4.3428797160e-04
 69         2.1177286514e-08
 70        -2.6316808133e-06
 71        -9.9295093716e-07
 72        -1.3143530584e-03
 73         4.5779297892e-08
 74         3.8244260338e-07
 75         1.3299487474e-08
 76         1.3238425719e-07
 77         5.8327681779e-07
 78        -2.7409979291e-04
 79         3.8860869197e-01
 80         3.3239006218e-01
 81        -7.0608537249e-04
 82         1.2762013761e-03
 83         3.2220502160e-07
 84         3.7543648955e-03
 85         2.7666982324e-04
 86        -5.2142813017e-04
 87        -1.2864921706e-07
 88        -1.0181038081e-03
 89         1.8274256926e-04
 90        -1.1629869529e-04
 91        -9.4032105162e-08
 92        -3.2986679788e-05
 93        -2.1481007007e-08
 94        -7.5859096239e-08
 95         9.6772509343e-05
 96         1.4409287043e-04
 97        -3.9132969893e-01
 98        -3.3471743204e-01
 99         7.1101461167e-04
100         1.2849739747e-03
101        -4.4641376830e-07
102        -3.7805094023e-03
103        -2.7836990652e-04
104        -5.2481315391e-04
105         1.7656617668e-07
106         1.0220848100e-03
107        -1.8274120164e-04
108        -1.1672064326e-04
109         1.1466957826e-07
110         3.3308481538e-05
111         6.1577735207e-09
112        -8.0236294301e-08
113        -9.7395601368e-05
114         1.4488118112e-04
115         8.1834649302e-08
116        -8.2434895177e-07
117         1.0961891680e-06
118        -1.9168458114e-06
119         1.2187927145e-09
120         2.2199869767e-06
121        -1.6266926266e-06
122         8.6566276493e-06
123        -3.8996694434e-09
124         1.2647681581e-04
125         2.4428921887e-04
126        -2.4537860868e-04
127         4.1149085592e-08
128        -4.4949694114e-06
129        -1.3731454979e-09
130         7.1843464111e-09
131         5.1002844777e-06
132         2.7460370794e-06
133         1.1477471265e-06
134        -2.8656913469e-05
135        -2.7583720668e-05
136         5.2724471310e-07
137        -4.6995442609e-07
138        -2.2916553485e-07
139        -1.8021608445e-06
140        -3.9522053128e-09
141         3.5789740727e-07
142         7.1309677652e-06
143         1.1329973540e-05
144         1.3340399269e-08
145         8.7775412157e-04
146         6.1202633615e-04
147         5.1564614972e-04
148         1.0718657959e-08
149        -1.6326303728e-06
150         2.2526201202e-09
151         2.9583179254e-09
152        -9.5869877557e-06
153         1.5477861413e-05
154        -5.6388950193e-08
155        -4.4271269295e-05
156         8.9536772619e-05
157        -1.0924758063e-10
158        -2.4905630928e-10
159        -1.4618894419e-09
160        -2.6028224332e-07
161         1.8217120289e-10
162        -1.1750952259e-08
163         9.0087219170e-09
164        -1.9737584608e-07
165        -5.7830710741e-10
166        -8.9509640484e-08
167         3.1080323431e-07
168        -2.4819650136e-04
169        -1.0415276337e-09
170        -7.1714241025e-10
171         1.5150714634e-10
172        -4.5983514461e-09
173        -1.4695154253e-09
174        -3.4542741051e-06
175        -9.6238252829e-09
176         1.0451135826e-07
177         3.9702743918e-08
 Sym= A
 Ene=        -2.0596386274e+01
 Spin= Alpha
 Occup=         0.0000000000e+00
  1        -1.5873186262e-07
  2         9.5897667519e-07
  3        -1.9543866722e-07
  4         2.1556177428e-06
  5         1.0906054347e-09
  6        -1.6163609937e-05
  7         1.3925929142e-06
  8        -8.8695228987e-06
  9        -4.0748690016e-09
 10         3.2188773358e-04
 11         1.7459791535e-04
 12         3.5527507247e-05
 13         1.8559354145e-08
 14        -6.7939925433e-06
 15         9.5761432879e-11
 16        -3.6109801687e-10
 17         3.5773069170e-06
 18        -2.4475516759e-06
 19         3.6468523734e-07
 20        -1.1202365977e-06
 21         4.4982529551e-06
 22        -9.3590652398e-07
 23        -1.0236610477e-09
 24         3.1273364043e-06
 25        -1.2550777018e-05
 26        -7.2944901476e-06
 27         7.1853204591e-09
 28        -8.4227706511e-05
 29         2.9281765259e-04
 30        -1.5109840774e-04
 31        -2.7989414500e-08
 32        -8.1363423478e-06
 33        -1.5198959932e-09
 34         3.4431636994e-09
 35        -1.7884093254e-05
 36        -1.7470807429e-05
 37         2.1565458729e-06
 38         8.2260948186e-07
 39        -1.6188761434e-05
 40        -1.7820161095e-08
 41        -1.5082080637e-09
 42         1.7323970833e-05
 43         2.8588725414e-05
 44         6.6344430225e-08
 45         8.9872533010e-09
 46        -5.0719351805e-04
 47         1.9147194450e-05
 48         5.8189122789e-06
 49         5.5470992429e-08
 50         4.2120948295e-06
 51         6.7652261393e-09
 52        -1.0067433617e-09
 53         3.5287525613e-05
 54         9.0282062990e-08
 55        -9.3398903745e-07
 56        -9.8809267493e-06
 57         1.7925862321e-06
 58        -5.6127765330e-07
 59        -2.2014317403e-05
 60         5.8413710268e-05
 61         3.6478749341e-05
 62        -5.4371835367e-05
 63         4.9070800442e-05
 64        -2.3872962484e-07
 65        -2.1789164283e-08
 66         2.7577186528e-04
 67         2.2220523195e-04
 68        -1.5150317821e-06
 69        -7.8720074192e-08
 70         7.5348662719e-04
 71         2.8441716497e-04
 72        -4.5830781768e-06
 73        -1.6805376964e-07
 74        -1.0960230058e-04
 75        -3.2693417653e-08
 76        -1.5735766061e-08
 77        -1.6718717421e-04
 78        -9.5615970902e-07
 79         3.9133240670e-01
 80         3.3471989872e-01
 81        -7.0877591660e-04
 82         1.2616637007e-03
 83         3.2815398678e-07
 84         3.7599218127e-03
 85         2.4457573805e-04
 86        -4.8693945645e-04
 87        -1.3014847429e-07
 88        -5.7358609277e-04
 89         3.5624341450e-07
 90        -6.0757499069e-05
 91         3.7178284653e-08
 92        -4.6158077560e-05
 93        -3.0955131479e-08
 94        -6.1046324812e-08
 95         8.9681770837e-05
 96         1.1352159074e-04
 97         3.8861141795e-01
 98         3.3239254582e-01
 99        -7.0383310660e-04
100        -1.2527290221e-03
101         4.4496251942e-07
102         3.7336365385e-03
103         2.4263961057e-04
104         4.8328933396e-04
105        -1.7315143477e-07
106        -5.6647268081e-04
107        -9.1797204501e-07
108         5.9945716979e-05
109         2.8072673982e-08
110        -4.5927353292e-05
111        -1.8349927888e-08
112         6.1037806687e-08
113         8.9003939762e-05
114        -1.1251316247e-04
115        -1.5816538008e-07
116         9.5325077907e-07
117        -1.8780368998e-07
118        -2.1690404523e-06
119         5.8361158270e-10
120        -1.6148532783e-05
121         1.3812993336e-06
122         8.9301247445e-06
123        -2.4106120632e-09
124         3.2277787159e-04
125         1.7630606052e-04
126        -3.7239655638e-05
127         1.3463550933e-08
128        -6.8255122798e-06
129         4.9770790471e-12
130         5.1985610206e-10
131         3.6129620686e-06
132         2.4667584034e-06
133        -9.2601306140e-07
134        -1.0080979000e-05
135         1.6002377200e-06
136         3.6837163241e-07
137        -1.1235384956e-06
138         4.4967753204e-06
139         9.2337971712e-07
140         2.7357635391e-10
141         3.1299307837e-06
142        -1.2501425438e-05
143         7.3735404287e-06
144         3.0294325728e-09
145        -7.8109197043e-05
146         2.9709322757e-04
147         1.5469827842e-04
148        -1.3186800067e-08
149        -8.1479036653e-06
150        -6.7366896287e-10
151        -2.2718039245e-09
152        -1.7951375073e-05
153         1.7579169020e-05
154        -5.6168293328e-07
155        -2.2323637368e-05
156         5.9039893400e-05
157         3.1333948426e-08
158         7.1249454604e-08
159         4.1889319078e-07
160        -9.1373233901e-10
161        -5.5156871798e-11
162         3.3704625769e-06
163        -2.5816350340e-06
164        -6.5486164123e-10
165        -1.4741658731e-09
166         2.5710298341e-05
167        -8.9099687777e-05
168        -8.6552339562e-07
169        -2.6383049571e-08
170         2.0631256872e-07
171         3.1304145159e-09
172        -2.1417858962e-10
173         4.2174765178e-07
174        -1.2037274712e-08
175         2.7591908277e-06
176        -2.9961390893e-05
177        -1.1377041892e-05
 Sym= A
 Ene=        -1.5852610040e+01
 Spin= Alpha
 Occup=         0.0000000000e+00
  1        -1.1748547356e-07
  2        -1.0490454523e-06
  3         1.0148536810e-06
  4        -2.1294464517e-07
  5        -9.0723980898e-10
  6         7.6789401268e-06
  7        -1.0717815944e-06
  8         4.8858109349e-06
  9         5.2244465335e-09
 10        -5.3327398969e-04
 11        -1.7537292363e-04
 12         8.1411407168e-05
 13        -1.8275719827e-08
 14        -1.2288679661e-06
 15         7.8102025968e-10
 16        -2.8117379495e-09
 17         1.4807379527e-06
 18        -7.6454777819e-06
 19         1.1655153299e-06
 20        -1.5731502545e-06
 21        -1.2762635966e-05
 22         1.0421566407e-05
 23         1.5459113428e-09
 24        -1.1708083178e-05
 25         4.4250403125e-05
 26        -5.1837602901e-05
 27        -7.3232185040e-09
 28         5.7826738955e-04
 29        -4.1058273917e-04
 30        -2.4863422707e-04
 31         3.4841463477e-08
 32        -1.3262382171e-05
 33         1.9694829872e-10
 34        -2.0170510096e-09
 35         1.3727393184e-06
 36        -2.2154763884e-05
 37         5.3419692211e-06
 38        -1.9606521663e-05
 39         6.0551223130e-05
 40        -2.5415761418e-11
 41        -3.7233535861e-09
 42         1.5162177547e-04
 43         1.9028965639e-04
 44        -1.2509696686e-10
 45        -5.5863060828e-09
 46         7.4090343859e-05
 47         9.1414858932e-04
 48        -1.7716028758e-09
 49        -4.0847464971e-08
 50        -4.5639064229e-06
 51        -9.9150751135e-09
 52         7.5248788270e-10
 53         1.2582079150e-04
 54         1.2603710276e-10
 55        -2.0956794644e-06
 56         5.2931990787e-06
 57        -1.4385578270e-05
 58        -8.6511781849e-06
 59         9.0018657343e-05
 60         5.0393825619e-05
 61         5.5789705657e-01
 62         4.6829370166e-01
 63         3.9006679080e-04
 64         2.7494325841e-09
 65        -1.8457781267e-07
 66         4.2162822027e-03
 67        -1.9448734175e-04
 68        -1.0101654462e-09
 69         1.9435941570e-08
 70        -8.1248616765e-04
 71         5.3011202948e-04
 72         1.9420528620e-09
 73        -3.2533273214e-08
 74        -2.1276647451e-04
 75        -8.0491351976e-08
 76        -1.8172895424e-08
 77        -5.4974284523e-05
 78         3.0124193714e-10
 79        -1.1707896815e-04
 80        -1.6118908470e-04
 81        -5.6936372117e-05
 82         9.1703579145e-05
 83         1.4259227672e-08
 84         2.5482121144e-04
 85        -1.3707799022e-04
 86         3.1780821719e-04
 87         5.0228229535e-08
 88        -1.5679533838e-05
 89        -5.7134127654e-05
 90        -5.9691762522e-05
 91        -1.6349582474e-08
 92        -4.8157575869e-05
 93         6.1043417305e-10
 94         3.7346067375e-08
 95        -9.9361348614e-05
 96        -1.2280059058e-04
 97        -1.1707946261e-04
 98        -1.6118982759e-04
 99        -5.6936591528e-05
100        -9.1703934923e-05
101         2.3022267199e-08
102         2.5482246146e-04
103        -1.3707857322e-04
104        -3.1780905077e-04
105         7.7049445608e-08
106        -1.5681468138e-05
107        -5.7133790830e-05
108         5.9692398599e-05
109        -1.7681499179e-08
110        -4.8157796109e-05
111        -1.1224775173e-08
112        -5.3697172597e-08
113        -9.9361538125e-05
114         1.2280115491e-04
115        -1.1748741489e-07
116        -1.0490328333e-06
117         1.0148674185e-06
118         2.1293746894e-07
119        -6.0427015149e-10
120         7.6788925831e-06
121        -1.0719108012e-06
122        -4.8857857239e-06
123         4.1927524484e-09
124        -5.3327393098e-04
125        -1.7537303849e-04
126        -8.1411613222e-05
127        -1.8857986761e-08
128        -1.2288413972e-06
129         1.2614676788e-09
130         2.7436008238e-09
131         1.4806799742e-06
132         7.6454816050e-06
133        -2.0956783236e-06
134         5.2930853835e-06
135        -1.4385675234e-05
136         1.1655106482e-06
137        -1.5731339616e-06
138        -1.2762616949e-05
139        -1.0421536209e-05
140         4.4160974607e-12
141        -1.1708184769e-05
142         4.4250176912e-05
143         5.1837319570e-05
144        -1.9034131652e-09
145         5.7826519139e-04
146        -4.1058295875e-04
147         2.4863354977e-04
148         3.4512184861e-08
149        -1.3262382343e-05
150         1.4543248249e-09
151         3.7191667619e-09
152         1.3728917187e-06
153         2.2154716284e-05
154        -8.6511780887e-06
155         9.0018629722e-05
156         5.0393788766e-05
157        -1.6025098543e-07
158         7.0875831472e-07
159         6.0826927640e-08
160        -2.0191172438e-12
161         1.4123640142e-09
162        -1.6606673673e-05
163         7.0025458650e-07
164         6.7356912863e-12
165        -4.3605088410e-09
166         2.2913043051e-04
167         1.8116490573e-04
168        -2.1206436921e-11
169         9.4806440249e-08
170        -5.7494150041e-06
171         1.3238789939e-09
172         3.2503672393e-10
173        -5.4360813617e-06
174         1.9341555433e-11
175        -4.0076917823e-06
176         3.3181254595e-05
177         3.0159593639e-05
 Sym= A
 Ene=        -1.1313586095e+01
 Spin= Alpha
 Occup=         0.0000000000e+00
  1         7.1241952749e-05
  2         6.2340381410e-05
  3         5.7588444787e-06
  4         8.1890030219e-06
  5         1.5074739104e-09
  6        -3.0850389724e-05
  7        -2.8103860329e-05
  8        -1.8808952333e-05
  9        -3.7306357211e-09
 10        -3.7344407531e-04
 11        -1.2265088142e-04
 12        -6.8055893951e-05
 13         2.8369847421e-08
 14        -3.9458407212e-06
 15         2.1931783708e-10
 16        -1.5774239079e-09
 17        -1.7980626203e-05
 18        -3.3857671943e-05
 19         9.4694317806e-03
 20         7.8060722833e-03
 21         1.1173124760e-04
 22        -2.1243080378e-04
 23         4.5706701462e-09
 24         2.2814620941e-04
 25        -2.6802461584e-05
 26         6.8273142693e-05
 27         1.8332388970e-09
 28         5.9974283459e-04
 29        -4.2272586062e-04
 30        -3.4672286740e-04
 31        -1.8762088379e-08
 32         8.1753277918e-05
 33         6.0463592018e-09
 34        -4.9611594725e-10
 35         2.2094787026e-05
 36        -9.9785637891e-06
 37         5.6318665211e-01
 38         4.6640955723e-01
 39         1.2888695208e-03
 40        -8.8966602624e-10
 41         8.7981647950e-08
 42         4.3059772875e-03
 43        -1.2565001624e-03
 44         2.7742753985e-09
 45        -8.9813441356e-08
 46        -4.5054390189e-04
 47         1.5061323500e-03
 48        -1.4419348506e-10
 49         7.3495511113e-08
 50        -3.0658321393e-04
 51         2.5786769730e-09
 52         1.4325647386e-08
 53        -4.4468795077e-04
 54        -8.3092269285e-10
 55        -1.0188170781e-05
 56         4.4529304414e-05
 57         2.6454701784e-05
 58         6.0660301293e-06
 59         4.0664648257e-05
 60         1.4402832474e-04
 61        -8.5467364537e-05
 62        -1.6381200711e-04
 63        -5.7529678883e-05
 64         7.8879504241e-11
 65         2.2323719590e-09
 66         5.0692334325e-04
 67        -6.4770606883e-04
 68        -3.4317852884e-10
 69         1.0393601643e-07
 70        -6.7440582771e-04
 71         3.9464208589e-04
 72        -5.5884696412e-10
 73        -1.0949680021e-07
 74        -5.6984162069e-05
 75        -2.4952670078e-08
 76         5.8801947454e-09
 77         2.8791021682e-04
 78        -1.2808145879e-10
 79         2.6678679268e-06
 80        -5.7121635128e-06
 81         2.0113352625e-05
 82        -1.7087813151e-05
 83        -8.4843684439e-09
 84         5.6925743545e-05
 85        -1.4581143497e-05
 86         6.1826563393e-05
 87         7.6356699943e-09
 88        -1.0580383589e-04
 89         1.0628207335e-05
 90        -2.9698843820e-05
 91         8.3270370451e-09
 92        -1.4596037541e-05
 93        -7.5833343634e-09
 94         1.2327459676e-08
 95        -1.7846644126e-05
 96        -3.1768403261e-05
 97         2.6678712083e-06
 98        -5.7121776027e-06
 99         2.0113386673e-05
100         1.7087805584e-05
101        -1.0453715849e-08
102         5.6925800134e-05
103        -1.4581297409e-05
104        -6.1826834104e-05
105         1.4987569439e-08
106        -1.0580282280e-04
107         1.0627839531e-05
108         2.9698494005e-05
109         5.8903461980e-09
110        -1.4596089487e-05
111        -1.1375909992e-08
112        -1.6960322508e-08
113        -1.7846643647e-05
114         3.1768555155e-05
115         7.1241665913e-05
116         6.2340115607e-05
117         5.7588158850e-06
118        -8.1889825313e-06
119         1.1777648452e-09
120        -3.0850177551e-05
121        -2.8103656587e-05
122         1.8808779679e-05
123        -3.3640444676e-09
124        -3.7344602933e-04
125        -1.2265178793e-04
126         6.8054720543e-05
127         2.9359336961e-08
128        -3.9458900930e-06
129         9.6652028371e-10
130         2.1634903145e-09
131        -1.7980466272e-05
132         3.3857641562e-05
133        -1.0188155687e-05
134         4.4529032064e-05
135         2.6454386585e-05
136         9.4694251969e-03
137         7.8060666901e-03
138         1.1173107941e-04
139         2.1243034856e-04
140         1.0882805721e-08
141         2.2814675668e-04
142        -2.6801426583e-05
143        -6.8271377713e-05
144         1.0923078189e-09
145         5.9974554950e-04
146        -4.2272670921e-04
147         3.4672398942e-04
148        -1.0388059693e-08
149         8.1752961791e-05