&FCI NORB=8,NELEC=0,MS2=0
ORBSYM=1,1,1,1,
ISYM=1,
/
      4.72202420630499941634e-01 	 1 1 1 1
     -5.96715071701861901610e-03 	 1 1 2 1
      2.29267947935186150454e-01 	 1 1 2 2
     -4.10856057181483366736e-02 	 1 1 3 1
     -2.51286705933985235473e-02 	 1 1 3 2
      3.02237969477550882935e-01 	 1 1 3 3
      8.17313096946718428693e-03 	 1 1 4 1
      9.77478074607752468739e-03 	 1 1 4 2
      1.30256895340943759480e-03 	 1 1 4 3
      1.55734212866687898869e-01 	 1 1 4 4
     -1.95464767672067808724e-02 	 1 1 5 1
     -3.13265287993653371301e-02 	 1 1 5 2
      1.38437811407355411582e-03 	 1 1 5 3
     -1.10465642010974612018e-03 	 1 1 5 4
      2.69551313032621253640e-01 	 1 1 5 5
      9.71370317074477288531e-04 	 1 1 6 1
      6.38931171391162572824e-04 	 1 1 6 2
      3.04204478439067289852e-03 	 1 1 6 3
     -4.87686728979379660598e-03 	 1 1 6 4
     -9.45936143695882622473e-03 	 1 1 6 5
      1.41611252455347447210e-01 	 1 1 6 6
      5.27772838794211135438e-02 	 1 1 7 1
      1.91216407455349762801e-02 	 1 1 7 2
     -8.17831683921908672921e-04 	 1 1 7 3
     -2.81562959805022093931e-04 	 1 1 7 4
      7.42045390988676969307e-03 	 1 1 7 5
     -6.51670452964336639062e-03 	 1 1 7 6
      3.45303455591690955373e-01 	 1 1 7 7
     -1.32894626764368424532e-02 	 1 1 8 1
      7.02667358143796959291e-03 	 1 1 8 2
     -7.29387768854625109100e-04 	 1 1 8 3
     -1.07548630588456019253e-02 	 1 1 8 4
     -1.67387782464722273401e-02 	 1 1 8 5
     -2.71374384364055825161e-03 	 1 1 8 6
     -3.40026881036862476185e-03 	 1 1 8 7
      2.21250220805743386121e-01 	 1 1 8 8
     -5.96715071701864243486e-03 	 2 1 1 1
      2.05986371388720921477e-03 	 2 1 2 1
     -8.48935144994472472291e-04 	 2 1 2 2
     -1.67109389575160517411e-04 	 2 1 3 1
      2.66138569722094726205e-03 	 2 1 3 2
      2.61977755346912664913e-03 	 2 1 3 3
     -5.42727312252632180731e-04 	 2 1 4 1
     -1.46742943419738086988e-03 	 2 1 4 2
     -4.40539755078370805393e-04 	 2 1 4 3
     -2.13172412675010497507e-03 	 2 1 4 4
      8.62117868877483985515e-04 	 2 1 5 1
      3.80130821808177202931e-03 	 2 1 5 2
      8.11159847469077217863e-04 	 2 1 5 3
      1.69780476873049800905e-04 	 2 1 5 4
      3.51763311834041129955e-03 	 2 1 5 5
     -4.80790286177700063736e-04 	 2 1 6 1
     -3.19260128249562312886e-04 	 2 1 6 2
     -3.12863138773209641975e-04 	 2 1 6 3
      2.02509700114164754858e-03 	 2 1 6 4
      2.48766682982207881260e-04 	 2 1 6 5
      2.93681496844162446755e-03 	 2 1 6 6
     -9.30116983220203100147e-04 	 2 1 7 1
     -2.52688813424533937485e-03 	 2 1 7 2
      1.13608340341127917947e-03 	 2 1 7 3
      3.25297082113470698971e-04 	 2 1 7 4
     -1.88746923334471823977e-03 	 2 1 7 5
      6.89064731857252617611e-04 	 2 1 7 6
     -5.59561584503961897269e-03 	 2 1 7 7
      1.17443313859685047676e-03 	 2 1 8 1
     -1.98998232017844642154e-04 	 2 1 8 2
      4.54750160879937703057e-04 	 2 1 8 3
      6.91453019693808942914e-04 	 2 1 8 4
      2.22784126003293826007e-03 	 2 1 8 5
     -4.81374131912168325056e-04 	 2 1 8 6
     -1.25496749474484812440e-05 	 2 1 8 7
     -6.26239606048200041916e-03 	 2 1 8 8
      2.29267947935185872899e-01 	 2 2 1 1
     -8.48935144994466183918e-04 	 2 2 2 1
      3.52601379734577558001e-01 	 2 2 2 2
      2.04536555310515840572e-03 	 2 2 3 1
     -2.03379844729467268438e-02 	 2 2 3 2
      1.88169656695011011660e-01 	 2 2 3 3
     -3.47038127792934905300e-04 	 2 2 4 1
      1.37499819743248652415e-02 	 2 2 4 2
     -2.18551106146910954081e-03 	 2 2 4 3
      1.68418474759817027309e-01 	 2 2 4 4
     -6.02988594368096715581e-03 	 2 2 5 1
     -2.38630107165260473001e-02 	 2 2 5 2
      4.29756210280083858488e-03 	 2 2 5 3
     -2.18863445400544961994e-03 	 2 2 5 4
      2.65638686430033799102e-01 	 2 2 5 5
     -8.38503267228333745188e-04 	 2 2 6 1
      1.97513400193401493163e-03 	 2 2 6 2
     -2.93226837670852984868e-05 	 2 2 6 3
      6.72393486761180617095e-03 	 2 2 6 4
     -4.75036401760103865755e-03 	 2 2 6 5
      1.59238582620902818787e-01 	 2 2 6 6
      3.47232159665626736317e-03 	 2 2 7 1
      1.13719182035335129172e-02 	 2 2 7 2
     -2.44573373113609856058e-03 	 2 2 7 3
      1.06101079635310523858e-03 	 2 2 7 4
      1.27091778793567405231e-03 	 2 2 7 5
     -1.36202090635292221224e-03 	 2 2 7 6
      2.28890521048536133009e-01 	 2 2 7 7
     -3.85718118207194985564e-03 	 2 2 8 1
      1.32016731486482453289e-02 	 2 2 8 2
     -1.03545507342983947839e-04 	 2 2 8 3
     -7.14087500876139057160e-03 	 2 2 8 4
     -1.81191751313667936962e-02 	 2 2 8 5
      1.39994862903957762237e-03 	 2 2 8 6
     -3.31352909951063590455e-04 	 2 2 8 7
      2.50489218091358323282e-01 	 2 2 8 8
     -4.10856057181482672847e-02 	 3 1 1 1
     -1.67109389575157590065e-04 	 3 1 2 1
      2.04536555310509595568e-03 	 3 1 2 2
      1.78171857052134771648e-02 	 3 1 3 1
      3.74339326521000567358e-03 	 3 1 3 2
     -4.49353642543969186707e-02 	 3 1 3 3
     -1.46357715967899894988e-03 	 3 1 4 1
      4.54109378091914722524e-04 	 3 1 4 2
     -3.16023650659860320597e-04 	 3 1 4 3
      2.36599712319298348395e-02 	 3 1 4 4
      3.03885278118910112655e-03 	 3 1 5 1
      2.96653489188603881888e-03 	 3 1 5 2
      9.06385869223485130409e-05 	 3 1 5 3
     -7.35885827339256815526e-04 	 3 1 5 4
     -1.93052228851913225058e-03 	 3 1 5 5
     -4.45814968680602362935e-04 	 3 1 6 1
     -4.24915688529259533493e-04 	 3 1 6 2
     -1.47633683632021140211e-03 	 3 1 6 3
     -1.37918121594769673040e-03 	 3 1 6 4
      5.21611003779195764492e-05 	 3 1 6 5
      2.40823702602826206220e-02 	 3 1 6 6
     -1.28924519266708920151e-02 	 3 1 7 1
     -1.85904585085266927866e-03 	 3 1 7 2
     -3.74576142012632415032e-03 	 3 1 7 3
     -1.67805269531469690479e-04 	 3 1 7 4
     -3.17505094278727664076e-04 	 3 1 7 5
      1.17353233069080993903e-03 	 3 1 7 6
     -2.90878833815415710484e-02 	 3 1 7 7
      2.44581520565547664431e-03 	 3 1 8 1
      5.77625821275352425987e-04 	 3 1 8 2
      1.17742090470416031420e-03 	 3 1 8 3
     -1.42073377077470662522e-03 	 3 1 8 4
      1.52386367410162421390e-03 	 3 1 8 5
      7.49063563517895440041e-04 	 3 1 8 6
      2.77135949771783703707e-04 	 3 1 8 7
      1.87224665090107676713e-02 	 3 1 8 8
     -2.51286705933984957917e-02 	 3 2 1 1
      2.66138569722095333359e-03 	 3 2 2 1
     -2.03379844729467788855e-02 	 3 2 2 2
      3.74339326521001391351e-03 	 3 2 3 1
      1.25812689519123749315e-02 	 3 2 3 2
     -2.49028608822439122272e-02 	 3 2 3 3
     -1.15823455665101972267e-03 	 3 2 4 1
     -5.16470291817866002104e-03 	 3 2 4 2
     -1.68893782409593358473e-03 	 3 2 4 3
      2.60969971735475550489e-03 	 3 2 4 4
      4.40330524539784065596e-03 	 3 2 5 1
      1.52552678342794019450e-02 	 3 2 5 2
      2.61840357617396666048e-03 	 3 2 5 3
      6.66142252687126315731e-04 	 3 2 5 4
     -8.87098834542908443179e-03 	 3 2 5 5
     -7.19048302541433438304e-04 	 3 2 6 1
     -1.08248232882682932608e-03 	 3 2 6 2
     -1.33426756582491565922e-03 	 3 2 6 3
      5.83802328284393177993e-03 	 3 2 6 4
      2.27002673999856293546e-03 	 3 2 6 5
      1.95424588842518370813e-02 	 3 2 6 6
     -5.89595214969644045022e-03 	 3 2 7 1
     -7.29734964877721409282e-03 	 3 2 7 2
      2.25130528682034730670e-03 	 3 2 7 3
      8.19858407506455361125e-04 	 3 2 7 4
     -4.55548388474693796701e-03 	 3 2 7 5
      1.91645704971532267018e-03 	 3 2 7 6
     -2.74787990662140983733e-02 	 3 2 7 7
      3.46904379393699752177e-03 	 3 2 8 1
     -1.80198539860776645732e-03 	 3 2 8 2
      1.66189872749727355489e-03 	 3 2 8 3
      2.00889945679314950097e-03 	 3 2 8 4
      7.99530541425392225763e-03 	 3 2 8 5
     -2.59603095352117709416e-04 	 3 2 8 6
      4.79726589213149605742e-04 	 3 2 8 7
     -1.96492817368717556659e-02 	 3 2 8 8
      3.02237969477550660891e-01 	 3 3 1 1
      2.61977755346909889356e-03 	 3 3 2 1
      1.88169656695011178194e-01 	 3 3 2 2
     -4.49353642543970227541e-02 	 3 3 3 1
     -2.49028608822439156967e-02 	 3 3 3 2
      5.11865742902537279591e-01 	 3 3 3 3
      2.34167555166561649344e-03 	 3 3 4 1
      1.48242322333024326153e-03 	 3 3 4 2
      4.93236853416877726181e-03 	 3 3 4 3
      1.30382010585191804308e-01 	 3 3 4 4
     -5.88115167337488302379e-03 	 3 3 5 1
     -8.94992097736555664023e-03 	 3 3 5 2
     -3.36397742517108040011e-03 	 3 3 5 3
      3.49614624117721415654e-04 	 3 3 5 4
      2.15013534585847349012e-01 	 3 3 5 5
     -2.38427217172495911970e-03 	 3 3 6 1
      1.37957226282020323400e-04 	 3 3 6 2
      8.60666451172473721820e-03 	 3 3 6 3
      4.20141871662459229914e-03 	 3 3 6 4
     -5.09416975413461321776e-03 	 3 3 6 5
      1.40766599492715027697e-01 	 3 3 6 6
      2.46491756944788170669e-02 	 3 3 7 1
      5.50470670884885878577e-03 	 3 3 7 2
      1.42488190154025952394e-02 	 3 3 7 3
      7.12023939962483278648e-04 	 3 3 7 4
     -1.77389663720249786405e-04 	 3 3 7 5
     -2.20066971521006970319e-03 	 3 3 7 6
      2.43827146079538037426e-01 	 3 3 7 7
     -1.90905131742299472367e-03 	 3 3 8 1
      3.96658887145915923372e-03 	 3 3 8 2
     -4.54178271348375153099e-03 	 3 3 8 3
     -4.53111172022988874242e-03 	 3 3 8 4
     -3.92695367910360273317e-03 	 3 3 8 5
     -4.29241492146165051075e-03 	 3 3 8 6
     -2.59115582306435185064e-03 	 3 3 8 7
      1.66199377804907372225e-01 	 3 3 8 8
      8.17313096946717040914e-03 	 4 1 1 1
     -5.42727312252629036544e-04 	 4 1 2 1
     -3.47038127792915606501e-04 	 4 1 2 2
     -1.46357715967899461307e-03 	 4 1 3 1
     -1.15823455665102037319e-03 	 4 1 3 2
      2.34167555166561215663e-03 	 4 1 3 3
      2.14897437618362645989e-03 	 4 1 4 1
      6.04907050777869770286e-04 	 4 1 4 2
      1.04018613000349453325e-03 	 4 1 4 3
      4.51923515811674877951e-03 	 4 1 4 4
     -1.03884462830066011917e-03 	 4 1 5 1
     -1.56808497015825405035e-03 	 4 1 5 2
     -4.34616386757870603458e-04 	 4 1 5 3
      8.45495413850693089885e-05 	 4 1 5 4
     -7.11348052792067368950e-04 	 4 1 5 5
      3.70777892423191529105e-04 	 4 1 6 1
      2.40006654155791457686e-04 	 4 1 6 2
      3.20800706185497060564e-04 	 4 1 6 3
     -7.15935351421904172392e-04 	 4 1 6 4
      1.70950387433792413104e-04 	 4 1 6 5
     -4.41084579891609911834e-03 	 4 1 6 6
      1.96180355004807547431e-03 	 4 1 7 1
      9.66637215451763426310e-04 	 4 1 7 2
     -2.51452864142186671616e-04 	 4 1 7 3
     -8.80502531515406253008e-04 	 4 1 7 4
      7.75459974831233574827e-04 	 4 1 7 5
     -5.80335540304759449001e-04 	 4 1 7 6
      5.78787935499099678166e-03 	 4 1 7 7
     -1.32878298455206067877e-03 	 4 1 8 1
      1.46087887990424206011e-05 	 4 1 8 2
     -4.85100312886481020627e-04 	 4 1 8 3
     -6.18245052677049585464e-04 	 4 1 8 4
     -1.32735558262978784599e-03 	 4 1 8 5
      5.54640576906178443643e-04 	 4 1 8 6
      1.41558347885936030219e-04 	 4 1 8 7
      1.11676842688005492979e-03 	 4 1 8 8
      9.77478074607750213598e-03 	 4 2 1 1
     -1.46742943419739821712e-03 	 4 2 2 1
      1.37499819743248583026e-02 	 4 2 2 2
      4.54109378091895857406e-04 	 4 2 3 1
     -5.16470291817864701062e-03 	 4 2 3 2
      1.48242322333023892472e-03 	 4 2 3 3
      6.04907050777872589212e-04 	 4 2 4 1
      4.45273063836976526475e-03 	 4 2 4 2
      1.05198364481818131336e-03 	 4 2 4 3
      9.84282289878581767573e-03 	 4 2 4 4
     -2.25546458687473283175e-03 	 4 2 5 1
     -6.75182808245114972345e-03 	 4 2 5 2
     -8.91968781856508066350e-04 	 4 2 5 3
      1.37918890529878900020e-04 	 4 2 5 4
      5.01107738538079071355e-03 	 4 2 5 5
      5.88758359605848127089e-04 	 4 2 6 1
      1.50974561387063211521e-03 	 4 2 6 2
      8.41326683411029252815e-04 	 4 2 6 3
     -3.07203648609276217321e-03 	 4 2 6 4
     -4.90684364175051138113e-04 	 4 2 6 5
     -5.04304278242737134136e-03 	 4 2 6 6
      1.30705257111552006384e-03 	 4 2 7 1
      3.72318157799491050025e-03 	 4 2 7 2
     -1.66633912333331141685e-03 	 4 2 7 3
     -6.28112116385955675246e-04 	 4 2 7 4
      2.52709928834887482402e-03 	 4 2 7 5
     -1.22657177925199114416e-03 	 4 2 7 6
      1.19773194510234323035e-02 	 4 2 7 7
     -1.88633679510230621926e-03 	 4 2 8 1
      1.65510807452977164698e-03 	 4 2 8 2
     -6.08570967315633635543e-04 	 4 2 8 3
     -2.14739599669385664710e-03 	 4 2 8 4
     -4.18631297890248617322e-03 	 4 2 8 5
      8.52958195498495445191e-04 	 4 2 8 6
     -1.07993966033931987477e-04 	 4 2 8 7
      1.79905300899946690718e-02 	 4 2 8 8
      1.30256895340943260747e-03 	 4 3 1 1
     -4.40539755078373570108e-04 	 4 3 2 1
     -2.18551106146911127553e-03 	 4 3 2 2
     -3.16023650659861133749e-04 	 4 3 3 1
     -1.68893782409593054897e-03 	 4 3 3 2
      4.93236853416877986389e-03 	 4 3 3 3
      1.04018613000349670165e-03 	 4 3 4 1
      1.05198364481817979547e-03 	 4 3 4 2
      1.40633222628420485358e-03 	 4 3 4 3
      4.79513152900525561895e-03 	 4 3 4 4
     -7.28955494715154573432e-04 	 4 3 5 1
     -1.52269364865862668820e-03 	 4 3 5 2
     -6.34814807097799547152e-04 	 4 3 5 3
     -1.19965286609975858856e-04 	 4 3 5 4
     -1.82590961511878285828e-03 	 4 3 5 5
      2.11345048462321168526e-04 	 4 3 6 1
      4.90365541322956388463e-04 	 4 3 6 2
      7.47821028975505122487e-04 	 4 3 6 3
     -1.34679762209997965806e-03 	 4 3 6 4
     -8.92270002950949130214e-05 	 4 3 6 5
     -2.03419804983195028070e-03 	 4 3 6 6
      2.30579343475802042924e-04 	 4 3 7 1
      8.77834047613886437472e-04 	 4 3 7 2
     -4.73258191580040298713e-04 	 4 3 7 3
     -4.69840642794649228538e-04 	 4 3 7 4
      9.03930877347229209604e-04 	 4 3 7 5
     -1.25035565754501689414e-05 	 4 3 7 6
      1.10857499282468767096e-03 	 4 3 7 7
     -6.79571740871277429202e-04 	 4 3 8 1
      7.14666396722761227810e-05 	 4 3 8 2
     -3.63085229920244759953e-04 	 4 3 8 3
     -6.19243398855908269186e-04 	 4 3 8 4
     -9.71297207536826788868e-04 	 4 3 8 5
      2.61057045582008793744e-04 	 4 3 8 6
     -6.45726321538746749710e-05 	 4 3 8 7
      1.86684907594164041511e-03 	 4 3 8 8
      1.55734212866688037646e-01 	 4 4 1 1
     -2.13172412675007635213e-03 	 4 4 2 1
      1.68418474759816666486e-01 	 4 4 2 2
      2.36599712319298660645e-02 	 4 4 3 1
      2.60969971735472514723e-03 	 4 4 3 2
      1.30382010585191776553e-01 	 4 4 3 3
      4.51923515811674531006e-03 	 4 4 4 1
      9.84282289878579338960e-03 	 4 4 4 2
      4.79513152900525128214e-03 	 4 4 4 3
      3.94082674090541373868e-01 	 4 4 4 4
     -7.37761863632685520667e-04 	 4 4 5 1
      8.10335221194022695124e-03 	 4 4 5 2
     -2.35441174727006336670e-03 	 4 4 5 3
      2.15055857248151825051e-03 	 4 4 5 4
      1.74490697279001349962e-01 	 4 4 5 5
      2.73372345002321397514e-03 	 4 4 6 1
     -1.56179491761310488759e-03 	 4 4 6 2
      1.11162806939095384212e-03 	 4 4 6 3
     -6.53152369599902318797e-03 	 4 4 6 4
     -1.23768530704544362821e-03 	 4 4 6 5
      2.61756811014694112938e-01 	 4 4 6 6
     -2.53226479540296610382e-02 	 4 4 7 1
     -2.59630081955190697776e-03 	 4 4 7 2
     -9.15731615880069002578e-03 	 4 4 7 3
     -1.28644800745002533746e-03 	 4 4 7 4
      3.89700897915769284285e-04 	 4 4 7 5
      2.87145391953258629844e-05 	 4 4 7 6
      1.11835290455190750070e-01 	 4 4 7 7
     -7.64591628033185798444e-04 	 4 4 8 1
      2.24244865231085048485e-03 	 4 4 8 2
      1.22510017403430602643e-04 	 4 4 8 3
     -1.77482855661757928101e-02 	 4 4 8 4
      1.04433874929831275666e-03 	 4 4 8 5
      7.60527200437664720883e-03 	 4 4 8 6
      1.09045982702864435558e-03 	 4 4 8 7
      2.39447190466502757289e-01 	 4 4 8 8
     -1.95464767672067149529e-02 	 5 1 1 1
      8.62117868877488105483e-04 	 5 1 2 1
     -6.02988594368095761483e-03 	 5 1 2 2
      3.03885278118909071821e-03 	 5 1 3 1
      4.40330524539784932958e-03 	 5 1 3 2
     -5.88115167337494547384e-03 	 5 1 3 3
     -1.03884462830065296343e-03 	 5 1 4 1
     -2.25546458687476752622e-03 	 5 1 4 2
     -7.28955494715160753384e-04 	 5 1 4 3
     -7.37761863632667739751e-04 	 5 1 4 4
      6.94073755685526566639e-03 	 5 1 5 1
      7.82026565988246970262e-03 	 5 1 5 2
      1.55198848164436395414e-03 	 5 1 5 3
     -3.67853385944089204124e-04 	 5 1 5 4
     -7.75313083617065398889e-03 	 5 1 5 5
     -1.04085354461432195994e-03 	 5 1 6 1
     -5.34535124233638503886e-04 	 5 1 6 2
     -8.48805787674715059819e-04 	 5 1 6 3
      2.60254911921462342428e-03 	 5 1 6 4
      5.91285496237013274284e-04 	 5 1 6 5
      1.19773971382699431082e-02 	 5 1 6 6
     -4.84546892980839034870e-03 	 5 1 7 1
     -3.69224074866792133925e-03 	 5 1 7 2
      1.24096067725106679568e-03 	 5 1 7 3
      4.79346750460415938714e-04 	 5 1 7 4
     -3.05893791434990727426e-03 	 5 1 7 5
      1.09278920534991181440e-03 	 5 1 7 6
     -1.62650078369854789173e-02 	 5 1 7 7
      3.00280672861327974435e-03 	 5 1 8 1
     -4.29070502608715426476e-05 	 5 1 8 2
      9.09495752583448107721e-04 	 5 1 8 3
      8.57342332653959911769e-04 	 5 1 8 4
      5.19235701679308936374e-03 	 5 1 8 5
     -7.04806816646012736401e-04 	 5 1 8 6
     -1.10167549836873558764e-04 	 5 1 8 7
     -9.37975142613916776368e-03 	 5 1 8 8
     -3.13265287993653440690e-02 	 5 2 1 1
      3.80130821808180845850e-03 	 5 2 2 1
     -2.38630107165261964863e-02 	 5 2 2 2
      2.96653489188605616611e-03 	 5 2 3 1
      1.52552678342793898020e-02 	 5 2 3 2
     -8.94992097736556357912e-03 	 5 2 3 3
     -1.56808497015826185661e-03 	 5 2 4 1
     -6.75182808245108206924e-03 	 5 2 4 2
     -1.52269364865861302726e-03 	 5 2 4 3
      8.10335221194021133873e-03 	 5 2 4 4
      7.82026565988243674288e-03 	 5 2 5 1
      2.80086037158207568076e-02 	 5 2 5 2
      3.03079364642896888909e-03 	 5 2 5 3
      1.12267422161351436947e-03 	 5 2 5 4
     -1.26395533196352709282e-02 	 5 2 5 5
     -9.61459648275230166839e-04 	 5 2 6 1
     -1.16448222347406401059e-03 	 5 2 6 2
     -9.56121909523769547556e-04 	 5 2 6 3
      9.49698483951109256873e-03 	 5 2 6 4
      3.25126905357206019004e-03 	 5 2 6 5
      3.32950975134118504206e-02 	 5 2 6 6
     -9.00051892164936695462e-03 	 5 2 7 1
     -1.13276636642912400393e-02 	 5 2 7 2
      4.44625300472987951966e-03 	 5 2 7 3
      1.26806574028544153179e-03 	 5 2 7 4
     -7.59841177199113877727e-03 	 5 2 7 5
      2.48628427874188033531e-03 	 5 2 7 6
     -3.28321544797092190748e-02 	 5 2 7 7
      5.31444207690216254003e-03 	 5 2 8 1
     -2.71861239832443726122e-03 	 5 2 8 2
      2.08118436886245948558e-03 	 5 2 8 3
      1.96224322631882545920e-03 	 5 2 8 4
      1.25212674410997044927e-02 	 5 2 8 5
     -9.97490803967695469643e-05 	 5 2 8 6
      3.42202934579889607100e-04 	 5 2 8 7
     -2.57564247370764068390e-02 	 5 2 8 8
      1.38437811407353676858e-03 	 5 3 1 1
      8.11159847469063882176e-04 	 5 3 2 1
      4.29756210280088802450e-03 	 5 3 2 2
      9.06385869223506543402e-05 	 5 3 3 1
      2.61840357617396666048e-03 	 5 3 3 2
     -3.36397742517106825705e-03 	 5 3 3 3
     -4.34616386757869193995e-04 	 5 3 4 1
     -8.91968781856513487361e-04 	 5 3 4 2
     -6.34814807097797161907e-04 	 5 3 4 3
     -2.35441174727003344272e-03 	 5 3 4 4
      1.55198848164438910763e-03 	 5 3 5 1
      3.03079364642893419463e-03 	 5 3 5 2
      2.85449946698099893405e-03 	 5 3 5 3
     -1.65441365249540794230e-04 	 5 3 5 4
      3.79829929020113459676e-03 	 5 3 5 5
     -6.51793002628513087719e-04 	 5 3 6 1
     -1.29306967527934246970e-04 	 5 3 6 2
     -5.15606371228775959940e-04 	 5 3 6 3
      2.19664610022299571640e-03 	 5 3 6 4
     -4.96024980274478174231e-05 	 5 3 6 5
      3.83085469384336022719e-03 	 5 3 6 6
      2.62267901315069672501e-04 	 5 3 7 1
     -9.48969080635326568685e-04 	 5 3 7 2
      9.07125672881248278426e-04 	 5 3 7 3
      3.58444718661567456475e-04 	 5 3 7 4
     -1.92785066844634346561e-03 	 5 3 7 5
      5.28513409451806864467e-04 	 5 3 7 6
      1.11377010473382408173e-03 	 5 3 7 7
      9.09426521533324518955e-04 	 5 3 8 1
      3.53242964042221082969e-04 	 5 3 8 2
      7.50094340940945375484e-04 	 5 3 8 3
      2.14101549630179709572e-04 	 5 3 8 4
      1.93399953524835913760e-03 	 5 3 8 5
     -5.16609709575054109644e-04 	 5 3 8 6
      6.08283197535914237986e-05 	 5 3 8 7
     -2.77271359277622914466e-03 	 5 3 8 8
     -1.10465642010974438546e-03 	 5 4 1 1
      1.69780476873046981979e-04 	 5 4 2 1
     -2.18863445400543227271e-03 	 5 4 2 2
     -7.35885827339242829317e-04 	 5 4 3 1
      6.66142252687126315731e-04 	 5 4 3 2
      3.49614624117710139951e-04 	 5 4 3 3
      8.45495413850678995257e-05 	 5 4 4 1
      1.37918890529852716537e-04 	 5 4 4 2
     -1.19965286609981334077e-04 	 5 4 4 3
      2.15055857248149569910e-03 	 5 4 4 4
     -3.67853385944083132592e-04 	 5 4 5 1
      1.12267422161353887244e-03 	 5 4 5 2
     -1.65441365249556894632e-04 	 5 4 5 3
      1.55848272721388191736e-03 	 5 4 5 4
      2.10225899837692613119e-04 	 5 4 5 5
      5.51143369482472644458e-04 	 5 4 6 1
      8.01849207228021187456e-04 	 5 4 6 2
      4.40443788212733903543e-04 	 5 4 6 3
      6.73452312001742532319e-04 	 5 4 6 4
      1.39385372354226149717e-03 	 5 4 6 5
     -7.26911781956798255973e-04 	 5 4 6 6
      1.94860939386343656656e-04 	 5 4 7 1
     -5.08879079734281519060e-04 	 5 4 7 2
      5.93124073621514153430e-04 	 5 4 7 3
      8.97226984347462418624e-05 	 5 4 7 4
     -3.64270215090289417939e-04 	 5 4 7 5
     -3.95461631032453559027e-04 	 5 4 7 6
     -1.86248719611623470699e-03 	 5 4 7 7
     -4.46956968178210110355e-04 	 5 4 8 1
     -5.15872570099981013828e-04 	 5 4 8 2
     -2.29211262459130273549e-04 	 5 4 8 3
      5.15987586420932407665e-04 	 5 4 8 4
     -3.12498798307097864872e-04 	 5 4 8 5
      6.44475682309650333389e-04 	 5 4 8 6
      2.30915778259676885168e-04 	 5 4 8 7
     -3.77396878212474338327e-03 	 5 4 8 8
      2.69551313032621364663e-01 	 5 5 1 1
      3.51763311834040522802e-03 	 5 5 2 1
      2.65638686430033910124e-01 	 5 5 2 2
     -1.93052228851915436830e-03 	 5 5 3 1
     -8.87098834542907228873e-03 	 5 5 3 2
      2.15013534585847349012e-01 	 5 5 3 3
     -7.11348052792079728855e-04 	 5 5 4 1
      5.01107738538068749751e-03 	 5 5 4 2
     -1.82590961511880757809e-03 	 5 5 4 3
      1.74490697279001627518e-01 	 5 5 4 4
     -7.75313083617067827502e-03 	 5 5 5 1
     -1.26395533196351460281e-02 	 5 5 5 2
      3.79829929020106954463e-03 	 5 5 5 3
      2.10225899837714622423e-04 	 5 5 5 4
      3.85252929620623407736e-01 	 5 5 5 5
     -2.59314884479422197092e-03 	 5 5 6 1
     -1.43170867262913887111e-03 	 5 5 6 2
     -8.74456351820893833596e-04 	 5 5 6 3
      8.05233226158114448467e-03 	 5 5 6 4
     -7.29090248224759616968e-03 	 5 5 6 5
      1.96567139427657328055e-01 	 5 5 6 6
      6.73259378942897123571e-03 	 5 5 7 1
      3.94519492440903885716e-03 	 5 5 7 2
     -1.18329588362764285062e-03 	 5 5 7 3
      1.34571395379614981713e-03 	 5 5 7 4
     -3.93482313651000430860e-03 	 5 5 7 5
      3.21783064443542047434e-04 	 5 5 7 6
      2.26287412811671501123e-01 	 5 5 7 7
      2.77759271132766707643e-03 	 5 5 8 1
      9.33271361820598062409e-03 	 5 5 8 2
      3.92132674664975606343e-03 	 5 5 8 3
     -9.36650397411588862828e-03 	 5 5 8 4
     -1.37563804120405964310e-02 	 5 5 8 5
     -4.14977198659775489697e-03 	 5 5 8 6
     -2.80595255606176088511e-03 	 5 5 8 7
      2.20634255773099308140e-01 	 5 5 8 8
      9.71370317074471433839e-04 	 6 1 1 1
     -4.80790286177705593167e-04 	 6 1 2 1
     -8.38503267228352393466e-04 	 6 1 2 2
     -4.45814968680607946576e-04 	 6 1 3 1
     -7.19048302541430402537e-04 	 6 1 3 2
     -2.38427217172495434921e-03 	 6 1 3 3
      3.70777892423194673291e-04 	 6 1 4 1
      5.88758359605843681860e-04 	 6 1 4 2
      2.11345048462323797716e-04 	 6 1 4 3
      2.73372345002324129704e-03 	 6 1 4 4
     -1.04085354461431979153e-03 	 6 1 5 1
     -9.61459648275225071089e-04 	 6 1 5 2
     -6.51793002628511786677e-04 	 6 1 5 3
      5.51143369482481101235e-04 	 6 1 5 4
     -2.59314884479424061919e-03 	 6 1 5 5
      2.84423445126204352956e-03 	 6 1 6 1
      3.36593309007648185290e-04 	 6 1 6 2
      1.34695005750066522376e-03 	 6 1 6 3
     -1.35237825254226075831e-03 	 6 1 6 4
      7.37959002478611554229e-04 	 6 1 6 5
      1.52600449413204612009e-03 	 6 1 6 6
      2.29197861829638871401e-04 	 6 1 7 1
      6.13468446064704964193e-04 	 6 1 7 2
     -2.84674156492663614146e-04 	 6 1 7 3
     -2.17529184552162611638e-04 	 6 1 7 4
      5.45199622739765471166e-04 	 6 1 7 5
     -1.51198872018516294186e-03 	 6 1 7 6
     -4.55619917557261659268e-04 	 6 1 7 7
     -1.18444062477298999933e-03 	 6 1 8 1
      2.34066383671534048838e-05 	 6 1 8 2
     -5.36803043682276522300e-04 	 6 1 8 3
      2.22200612593962353297e-04 	 6 1 8 4
     -1.10642922053310385072e-03 	 6 1 8 5
      1.24378757298690000195e-03 	 6 1 8 6
      1.93216671890607347845e-04 	 6 1 8 7
      4.66087660044123372905e-05 	 6 1 8 8
      6.38931171391181112681e-04 	 6 2 1 1
     -3.19260128249546483534e-04 	 6 2 2 1
      1.97513400193398674237e-03 	 6 2 2 2
     -4.24915688529241535737e-04 	 6 2 3 1
     -1.08248232882684862488e-03 	 6 2 3 2
      1.37957226282026828613e-04 	 6 2 3 3
      2.40006654155782241968e-04 	 6 2 4 1
      1.50974561387064230671e-03 	 6 2 4 2
      4.90365541322959641070e-04 	 6 2 4 3
     -1.56179491761315779666e-03 	 6 2 4 4
     -5.34535124233656826903e-04 	 6 2 5 1
     -1.16448222347402216038e-03 	 6 2 5 2
     -1.29306967527932539352e-04 	 6 2 5 3
      8.01849207227980313034e-04 	 6 2 5 4
     -1.43170867262919438226e-03 	 6 2 5 5
      3.36593309007654636292e-04 	 6 2 6 1
      2.43866810873839736512e-03 	 6 2 6 2
      8.57943240073272793411e-04 	 6 2 6 3
     -1.13730331262132757821e-03 	 6 2 6 4
      1.44285908540266031609e-03 	 6 2 6 5
     -1.44175851122352186376e-03 	 6 2 6 6
      5.72046624326544230106e-04 	 6 2 7 1
      9.30855005215879883519e-04 	 6 2 7 2
     -1.65793891112965660790e-04 	 6 2 7 3
     -3.96485858910660662804e-04 	 6 2 7 4
      4.52497350671909155054e-04 	 6 2 7 5
     -7.31101042496710203794e-04 	 6 2 7 6
      9.60061352594678289914e-04 	 6 2 7 7
     -5.94869166538628197163e-04 	 6 2 8 1
      2.16054799134555785634e-04 	 6 2 8 2
     -2.12734375599147771622e-04 	 6 2 8 3
      5.93967123793439841228e-04 	 6 2 8 4
     -8.14082258221054391387e-04 	 6 2 8 5
      3.49142039419736774364e-04 	 6 2 8 6
      2.32269432333045565582e-05 	 6 2 8 7
     -8.26500571852494805500e-04 	 6 2 8 8
      3.04204478439068937839e-03 	 6 3 1 1
     -3.12863138773207202521e-04 	 6 3 2 1
     -2.93226837670975499714e-05 	 6 3 2 2
     -1.47633683632020923371e-03 	 6 3 3 1
     -1.33426756582492259812e-03 	 6 3 3 2
      8.60666451172474242237e-03 	 6 3 3 3
      3.20800706185500367380e-04 	 6 3 4 1
      8.41326683411030662278e-04 	 6 3 4 2
      7.47821028975505122487e-04 	 6 3 4 3
      1.11162806939094950531e-03 	 6 3 4 4
     -8.48805787674709096707e-04 	 6 3 5 1
     -9.56121909523770848599e-04 	 6 3 5 2
     -5.15606371228774875738e-04 	 6 3 5 3
      4.40443788212732494081e-04 	 6 3 5 4
     -8.74456351820902724054e-04 	 6 3 5 5
      1.34695005750066565745e-03 	 6 3 6 1
      8.57943240073277563901e-04 	 6 3 6 2
      1.93944437353899467799e-03 	 6 3 6 3
     -8.72230899774133336053e-04 	 6 3 6 4
      4.09331090233054346959e-04 	 6 3 6 5
      4.38137802727251541787e-04 	 6 3 6 6
      9.18159071625982694739e-04 	 6 3 7 1
      6.64169249392811567728e-04 	 6 3 7 2
      1.91445966268479611776e-04 	 6 3 7 3
      2.04688724634081189958e-04 	 6 3 7 4
      6.82402202884284489644e-04 	 6 3 7 5
     -3.67678532755597638898e-04 	 6 3 7 6
      2.76911440975441749957e-03 	 6 3 7 7
     -8.11551588830797471577e-04 	 6 3 8 1
      1.44689799294812855351e-04 	 6 3 8 2
     -4.53535655988669933036e-04 	 6 3 8 3
     -8.82042267322674124457e-06 	 6 3 8 4
     -9.99738866786397447489e-04 	 6 3 8 5
      7.62577623614015638262e-04 	 6 3 8 6
      1.55265534968001970217e-04 	 6 3 8 7
      3.96012361147435256077e-04 	 6 3 8 8
     -4.87686728979381135113e-03 	 6 4 1 1
      2.02509700114163583920e-03 	 6 4 2 1
      6.72393486761189984602e-03 	 6 4 2 2
     -1.37918121594770497033e-03 	 6 4 3 1
      5.83802328284395693342e-03 	 6 4 3 2
      4.20141871662460097275e-03 	 6 4 3 3
     -7.15935351421884223072e-04 	 6 4 4 1
     -3.07203648609275349959e-03 	 6 4 4 2
     -1.34679762209996924972e-03 	 6 4 4 3
     -6.53152369599892777818e-03 	 6 4 4 4
      2.60254911921463339894e-03 	 6 4 5 1
      9.49698483951104920064e-03 	 6 4 5 2
      2.19664610022300178793e-03 	 6 4 5 3
      6.73452312001787960390e-04 	 6 4 5 4
      8.05233226158124162919e-03 	 6 4 5 5
     -1.35237825254226487828e-03 	 6 4 6 1
     -1.13730331262131673618e-03 	 6 4 6 2
     -8.72230899774139190744e-04 	 6 4 6 3
      1.36170167698781204718e-02 	 6 4 6 4
      1.36828298676509862997e-03 	 6 4 6 5
      6.16546268062301890817e-03 	 6 4 6 6
     -1.08500039587463561683e-03 	 6 4 7 1
     -4.65593785686421127862e-03 	 6 4 7 2
      3.94354686151353328594e-03 	 6 4 7 3
      9.59231763987865326294e-04 	 6 4 7 4
     -4.10967439149504971257e-03 	 6 4 7 5
      1.48719127903546672817e-03 	 6 4 7 6
     -1.73490843216389696579e-03 	 6 4 7 7
      2.25433055001100692699e-03 	 6 4 8 1
      1.48225922215557809856e-04 	 6 4 8 2
      9.07926676829505833154e-04 	 6 4 8 3
      1.74065969618638228394e-03 	 6 4 8 4
      4.10287373278074747607e-03 	 6 4 8 5
     -3.83983142712312087302e-04 	 6 4 8 6
      3.28910433931585291858e-04 	 6 4 8 7
     -9.39425539614551115275e-03 	 6 4 8 8
     -9.45936143695881928584e-03 	 6 5 1 1
      2.48766682982192973480e-04 	 6 5 2 1
     -4.75036401760101784086e-03 	 6 5 2 2
      5.21611003778995187090e-05 	 6 5 3 1
      2.27002673999856813963e-03 	 6 5 3 2
     -5.09416975413460194205e-03 	 6 5 3 3
      1.70950387433804068277e-04 	 6 5 4 1
     -4.90684364175059594890e-04 	 6 5 4 2
     -8.92270002950945064456e-05 	 6 5 4 3
     -1.23768530704537727503e-03 	 6 5 4 4
      5.91285496237032789923e-04 	 6 5 5 1
      3.25126905357203243446e-03 	 6 5 5 2