[Molden Format]
[Atoms] (AU)
C    1    6          -3.4108199048         3.7000719679         1.3290675782
C    2    6          -0.7175456079         3.7683460154         1.3200354999
C    3    6           0.5595951804         1.5454058050         1.3422185980
C    4    6          -4.7626511167         1.4269130606         1.3913842640
H    5    1          -4.4313078228         5.4786881120         1.3074921781
H    6    1           0.2996426594         5.5442104537         1.3211882895
H    7    1          -6.8067071119         1.4453800879         1.4114951263
N    8    7           3.3408124935         1.5512762014         1.4586631817
O    9    8           4.3748181139        -0.5607450411         1.6626825685
O   10    8           4.4231797392         3.6346165415         1.3454586846
C   11    6          -3.4581378344        -0.8355749791         1.4291223593
H   12    1          -4.4536377905        -2.6266577787         1.4923939616
C   13    6          -0.6828358176        -0.9289382211         1.3495448583
H   14    1           0.2255165459        -2.3396795096         2.5518868851
BR  15   35          -0.2857505204        -2.3133314928        -2.2127294082
[GTO]
  1 0
 s    6  1.00
     4563.2400000000         0.0019666500
      682.0240000000         0.0152306000
      154.9730000000         0.0761269000
       44.4553000000         0.2608010000
       13.0290000000         0.6164620000
        1.8277300000         0.2210060000
 s    3  1.00
       20.9642000000         0.1146600000
        4.8033100000         0.9199990000
        1.4593300000        -0.0030306800
 p    3  1.00
       20.9642000000         0.0402487000
        4.8033100000         0.2375940000
        1.4593300000         0.8158540000
 s    1  1.00
        0.4834560000         1.0000000000
 p    1  1.00
        0.4834560000         1.0000000000
 s    1  1.00
        0.1455850000         1.0000000000
 p    1  1.00
        0.1455850000         1.0000000000
 d    1  1.00
        0.6260000000         1.0000000000

  2 0
 s    6  1.00
     4563.2400000000         0.0019666500
      682.0240000000         0.0152306000
      154.9730000000         0.0761269000
       44.4553000000         0.2608010000
       13.0290000000         0.6164620000
        1.8277300000         0.2210060000
 s    3  1.00
       20.9642000000         0.1146600000
        4.8033100000         0.9199990000
        1.4593300000        -0.0030306800
 p    3  1.00
       20.9642000000         0.0402487000
        4.8033100000         0.2375940000
        1.4593300000         0.8158540000
 s    1  1.00
        0.4834560000         1.0000000000
 p    1  1.00
        0.4834560000         1.0000000000
 s    1  1.00
        0.1455850000         1.0000000000
 p    1  1.00
        0.1455850000         1.0000000000
 d    1  1.00
        0.6260000000         1.0000000000

  3 0
 s    6  1.00
     4563.2400000000         0.0019666500
      682.0240000000         0.0152306000
      154.9730000000         0.0761269000
       44.4553000000         0.2608010000
       13.0290000000         0.6164620000
        1.8277300000         0.2210060000
 s    3  1.00
       20.9642000000         0.1146600000
        4.8033100000         0.9199990000
        1.4593300000        -0.0030306800
 p    3  1.00
       20.9642000000         0.0402487000
        4.8033100000         0.2375940000
        1.4593300000         0.8158540000
 s    1  1.00
        0.4834560000         1.0000000000
 p    1  1.00
        0.4834560000         1.0000000000
 s    1  1.00
        0.1455850000         1.0000000000
 p    1  1.00
        0.1455850000         1.0000000000
 d    1  1.00
        0.6260000000         1.0000000000

  4 0
 s    6  1.00
     4563.2400000000         0.0019666500
      682.0240000000         0.0152306000
      154.9730000000         0.0761269000
       44.4553000000         0.2608010000
       13.0290000000         0.6164620000
        1.8277300000         0.2210060000
 s    3  1.00
       20.9642000000         0.1146600000
        4.8033100000         0.9199990000
        1.4593300000        -0.0030306800
 p    3  1.00
       20.9642000000         0.0402487000
        4.8033100000         0.2375940000
        1.4593300000         0.8158540000
 s    1  1.00
        0.4834560000         1.0000000000
 p    1  1.00
        0.4834560000         1.0000000000
 s    1  1.00
        0.1455850000         1.0000000000
 p    1  1.00
        0.1455850000         1.0000000000
 d    1  1.00
        0.6260000000         1.0000000000

  5 0
 s    3  1.00
       33.8650000000         0.0254938000
        5.0947900000         0.1903730000
        1.1587900000         0.8521610000
 s    1  1.00
        0.3258400000         1.0000000000
 s    1  1.00
        0.1027410000         1.0000000000

  6 0
 s    3  1.00
       33.8650000000         0.0254938000
        5.0947900000         0.1903730000
        1.1587900000         0.8521610000
 s    1  1.00
        0.3258400000         1.0000000000
 s    1  1.00
        0.1027410000         1.0000000000

  7 0
 s    3  1.00
       33.8650000000         0.0254938000
        5.0947900000         0.1903730000
        1.1587900000         0.8521610000
 s    1  1.00
        0.3258400000         1.0000000000
 s    1  1.00
        0.1027410000         1.0000000000

  8 0
 s    6  1.00
     6293.4800000000         0.0019697900
      949.0440000000         0.0149613000
      218.7760000000         0.0735006000
       63.6916000000         0.2489370000
       18.8282000000         0.6024600000
        2.7202300000         0.2562020000
 s    3  1.00
       30.6331000000         0.1119060000
        7.0261400000         0.9216660000
        2.1120500000        -0.0025691900
 p    3  1.00
       30.6331000000         0.0383119000
        7.0261400000         0.2374030000
        2.1120500000         0.8175920000
 s    1  1.00
        0.6840090000         1.0000000000
 p    1  1.00
        0.6840090000         1.0000000000
 s    1  1.00
        0.2008780000         1.0000000000
 p    1  1.00
        0.2008780000         1.0000000000
 d    1  1.00
        0.9130000000         1.0000000000

  9 0
 s    6  1.00
     8588.5000000000         0.0018951500
     1297.2300000000         0.0143859000
      299.2960000000         0.0707320000
       87.3771000000         0.2400010000
       25.6789000000         0.5947970000
        3.7400400000         0.2808020000
 s    3  1.00
       42.1175000000         0.1138890000
        9.6283700000         0.9208110000
        2.8533200000        -0.0032744700
 p    3  1.00
       42.1175000000         0.0365114000
        9.6283700000         0.2371530000
        2.8533200000         0.8197020000
 s    1  1.00
        0.9056610000         1.0000000000
 p    1  1.00
        0.9056610000         1.0000000000
 s    1  1.00
        0.2556110000         1.0000000000
 p    1  1.00
        0.2556110000         1.0000000000
 d    1  1.00
        1.2920000000         1.0000000000

  10 0
 s    6  1.00
     8588.5000000000         0.0018951500
     1297.2300000000         0.0143859000
      299.2960000000         0.0707320000
       87.3771000000         0.2400010000
       25.6789000000         0.5947970000
        3.7400400000         0.2808020000
 s    3  1.00
       42.1175000000         0.1138890000
        9.6283700000         0.9208110000
        2.8533200000        -0.0032744700
 p    3  1.00
       42.1175000000         0.0365114000
        9.6283700000         0.2371530000
        2.8533200000         0.8197020000
 s    1  1.00
        0.9056610000         1.0000000000
 p    1  1.00
        0.9056610000         1.0000000000
 s    1  1.00
        0.2556110000         1.0000000000
 p    1  1.00
        0.2556110000         1.0000000000
 d    1  1.00
        1.2920000000         1.0000000000

  11 0
 s    6  1.00
     4563.2400000000         0.0019666500
      682.0240000000         0.0152306000
      154.9730000000         0.0761269000
       44.4553000000         0.2608010000
       13.0290000000         0.6164620000
        1.8277300000         0.2210060000
 s    3  1.00
       20.9642000000         0.1146600000
        4.8033100000         0.9199990000
        1.4593300000        -0.0030306800
 p    3  1.00
       20.9642000000         0.0402487000
        4.8033100000         0.2375940000
        1.4593300000         0.8158540000
 s    1  1.00
        0.4834560000         1.0000000000
 p    1  1.00
        0.4834560000         1.0000000000
 s    1  1.00
        0.1455850000         1.0000000000
 p    1  1.00
        0.1455850000         1.0000000000
 d    1  1.00
        0.6260000000         1.0000000000

  12 0
 s    3  1.00
       33.8650000000         0.0254938000
        5.0947900000         0.1903730000
        1.1587900000         0.8521610000
 s    1  1.00
        0.3258400000         1.0000000000
 s    1  1.00
        0.1027410000         1.0000000000

  13 0
 s    6  1.00
     4563.2400000000         0.0019666500
      682.0240000000         0.0152306000
      154.9730000000         0.0761269000
       44.4553000000         0.2608010000
       13.0290000000         0.6164620000
        1.8277300000         0.2210060000
 s    3  1.00
       20.9642000000         0.1146600000
        4.8033100000         0.9199990000
        1.4593300000        -0.0030306800
 p    3  1.00
       20.9642000000         0.0402487000
        4.8033100000         0.2375940000
        1.4593300000         0.8158540000
 s    1  1.00
        0.4834560000         1.0000000000
 p    1  1.00
        0.4834560000         1.0000000000
 s    1  1.00
        0.1455850000         1.0000000000
 p    1  1.00
        0.1455850000         1.0000000000
 d    1  1.00
        0.6260000000         1.0000000000

  14 0
 s    3  1.00
       33.8650000000         0.0254938000
        5.0947900000         0.1903730000
        1.1587900000         0.8521610000
 s    1  1.00
        0.3258400000         1.0000000000
 s    1  1.00
        0.1027410000         1.0000000000

  15 0
 s    6  1.00
   439700.0000000000         0.0008130000
    66030.0000000000         0.0062850000
    15140.0000000000         0.0319200000
     4317.0000000000         0.1288000000
     1414.0000000000         0.3946000000
      523.9000000000         0.5413000000
 s    3  1.00
      523.9000000000         0.1831000000
      207.7000000000         0.6176000000
       86.5400000000         0.2538000000
 s    1  1.00
       30.5200000000         1.0000000000
 s    1  1.00
       12.9800000000         1.0000000000
 s    1  1.00
        4.4120000000         1.0000000000
 s    1  1.00
        1.8620000000         1.0000000000
 s    1  1.00
        0.3932000000         1.0000000000
 s    1  1.00
        0.1400000000         1.0000000000
 p    3  1.00
     2957.0000000000         0.0222600000
      700.3000000000         0.1802000000
      224.6000000000         0.8624000000
 p    3  1.00
       82.5900000000         0.3440000000
       33.1900000000         0.5071000000
       14.2000000000         0.2590000000
 p    3  1.00
       14.2000000000         0.0796500000
        7.4380000000         0.3734000000
        3.5260000000         0.6049000000
 p    1  1.00
        1.5950000000         1.0000000000
 p    1  1.00
        0.8462000000         1.0000000000
 p    1  1.00
        0.3186000000         1.0000000000
 p    1  1.00
        0.1096000000         1.0000000000
 d    4  1.00
      134.8000000000         0.0183100000
       36.3900000000         0.1350000000
       12.1600000000         0.4261000000
        4.3410000000         0.6043000000
 d    1  1.00
        1.5350000000         1.0000000000
 d    1  1.00
        0.4510000000         1.0000000000

[5D]
[9G]

[MO]
 Sym= A
 Ene=        -4.9022529863e+02
 Spin= Alpha
 Occup=         0.0000000000e+00
  1        -6.0103519703e-09
  2         1.5365507062e-08
  3         5.7668473373e-09
  4        -5.8005344069e-09
  5        -1.7181464948e-08
  6        -1.0634234036e-07
  7        -9.0981712817e-09
  8        -1.0048583198e-08
  9         6.1493805960e-08
 10         3.1318853085e-06
 11         9.0398815108e-07
 12        -1.0725521660e-06
 13        -1.9222632896e-07
 14        -2.9645621227e-09
 15        -7.5020380215e-09
 16         3.5481636173e-09
 17         6.5298670453e-09
 18         2.1037707242e-08
 19        -3.2006511587e-09
 20         8.1955001480e-09
 21         8.4769747949e-10
 22        -5.1456610245e-08
 23        -5.0279326917e-09
 24         6.8650410142e-08
 25        -4.5814058909e-08
 26         2.2430387197e-07
 27         1.0775230526e-08
 28        -2.2012314503e-06
 29         1.7113599549e-06
 30         1.3053139231e-06
 31         2.8695795946e-07
 32         3.1655370868e-08
 33         1.0794762314e-08
 34        -2.8243680986e-08
 35         4.2671293954e-08
 36         2.8458831962e-08
 37        -1.9227008287e-08
 38         5.1712192068e-08
 39         1.8384797120e-08
 40         6.3372108196e-09
 41        -1.4256424805e-08
 42        -5.3450603773e-07
 43        -6.6627088806e-08
 44         8.3892130482e-08
 45         9.5164417946e-08
 46         5.8825604798e-06
 47        -2.6237436883e-06
 48        -2.6839115840e-06
 49        -8.3129968160e-07
 50        -9.9707594561e-08
 51         3.5036920465e-08
 52         9.0971937054e-08
 53        -8.3245585965e-08
 54         2.2948056497e-08
 55        -2.4360860729e-10
 56         1.2052137833e-09
 57         4.1774360897e-08
 58        -2.6886397770e-08
 59        -7.6621397748e-09
 60         1.0448440087e-07
 61        -1.5709597542e-07
 62         1.1714657407e-07
 63         2.1718958150e-08
 64        -3.4362185974e-06
 65        -1.8784087985e-06
 66         1.5778343035e-07
 67         2.4139626010e-07
 68         2.5578611024e-08
 69         1.0963513747e-08
 70        -1.7553044427e-08
 71         1.5620951357e-09
 72         2.2380923542e-08
 73        -9.8212270218e-09
 74         9.6157460644e-08
 75         2.2271905945e-07
 76         3.0988584418e-08
 77        -3.6369840608e-07
 78        -3.1893875535e-07
 79         2.0854390129e-08
 80        -2.2833854709e-07
 81        -2.7907356302e-07
 82        -3.1428710629e-09
 83         9.7512356100e-09
 84         6.9186243199e-09
 85        -8.2936130832e-09
 86         3.1919154710e-10
 87        -4.5872540120e-08
 88        -2.7905369283e-08
 89         4.1021131781e-09
 90        -4.7841775441e-09
 91         5.1530476388e-07
 92         2.2788788491e-07
 93         6.4556630659e-07
 94         1.7947144065e-07
 95         2.3698299788e-09
 96        -1.1690813960e-08
 97        -3.5777979851e-09
 98        -1.8177378024e-09
 99        -1.5683029960e-08
100        -5.7243029299e-10
101         3.3443451042e-09
102        -7.2156650804e-09
103        -1.3915013643e-08
104        -2.7644721617e-08
105        -7.6904081027e-09
106         1.7426436894e-08
107         4.6132759643e-08
108         8.9212996055e-08
109         1.3122285286e-07
110        -5.8989795904e-08
111        -4.5006900576e-08
112        -1.8554422260e-07
113         1.5961583975e-08
114         1.2366694152e-08
115        -5.1519109938e-09
116         8.7972399452e-10
117        -1.4118621668e-08
118         6.2836397746e-10
119        -1.8062409518e-09
120        -5.2542407025e-09
121         4.5178245836e-10
122         4.9384637952e-09
123         1.4939727131e-08
124         2.0718384805e-08
125        -3.1405682427e-10
126        -1.4183691689e-08
127        -3.4059567745e-07
128        -2.8346065398e-08
129         1.7299272889e-07
130        -2.4072616751e-08
131        -6.9969296425e-10
132        -1.7135022112e-09
133         7.0214663009e-09
134         1.2746814103e-08
135         2.3109791972e-09
136        -1.2512650739e-08
137         3.4846543579e-08
138        -5.3421896869e-08
139         2.0539143809e-08
140         4.3077712356e-09
141        -4.6791007204e-07
142         1.7729154311e-07
143        -4.0627226016e-08
144         8.6658980279e-09
145         5.6470358985e-06
146         1.9355759076e-06
147         2.1925080817e-06
148        -8.0429219221e-07
149        -7.3117393913e-08
150        -1.4019544107e-07
151         8.9509076242e-09
152         7.1229363007e-08
153        -5.6785536022e-08
154        -1.0713047061e-08
155         1.1775042167e-07
156         7.1428936169e-07
157         2.8832431670e-08
158        -8.5338498298e-08
159         4.6425439155e-09
160        -1.1506696058e-08
161        -1.1800436679e-07
162         8.8752368929e-07
163         2.5825567510e-08
164        -1.1884207366e-07
165         6.3720918985e-09
166        -7.8218854546e-06
167         1.4355563659e-06
168        -3.4416525157e-06
169         7.4567125562e-07
170         3.4614961241e-08
171         2.4593387099e-08
172        -1.1684343383e-07
173        -5.5295822192e-08
174        -6.8347109363e-08
175        -5.1177822242e-09
176        -3.2055610325e-07
177        -2.1630079676e-07
178         3.8999193192e-01
179         6.7446806932e-01
180         7.5833442034e-03
181        -4.3981820617e-04
182         2.4735343777e-05
183        -3.5088197897e-05
184         8.8754081771e-06
185        -3.3826174096e-06
186        -1.1402512737e-06
187         2.4175581164e-06
188         5.5291321083e-06
189        -4.0716839224e-07
190         8.6918105624e-07
191         2.0094482718e-06
192         2.3038121483e-07
193        -4.8560555900e-07
194        -1.0980321798e-06
195        -3.3691355139e-07
196         7.0501716693e-07
197         1.5485296704e-06
198         3.6963600848e-07
199        -7.7229806976e-07
200        -1.6268222581e-06
201        -3.3421485554e-07
202         7.2466315825e-07
203         1.3636533480e-06
204         2.5904130078e-07
205        -4.9812397140e-07
206        -1.1627287183e-06
207         8.1760412655e-07
208        -2.5599214709e-07
209         6.5714416923e-07
210        -1.1541437875e-07
211        -1.1399705564e-07
212        -4.4649097196e-07
213         1.4103555831e-07
214        -3.6966188389e-07
215         8.0449715754e-08
216         7.8578248176e-08
217        -3.8167226849e-11
218        -1.3421394853e-08
219         5.7734794493e-08
220        -5.3481540706e-08
221        -4.7995737604e-08
 Sym= A
 Ene=        -6.5358683018e+01
 Spin= Alpha
 Occup=         0.0000000000e+00
  1        -1.1945711555e-06
  2         3.8889468126e-06
  3         1.8160145707e-06
  4        -1.0520731287e-06
  5        -5.4160090117e-06
  6        -3.3278112118e-05
  7        -3.5599479220e-06
  8        -6.3287560439e-06
  9         1.6970302411e-05
 10         9.9655949956e-04
 11         2.9145483223e-04
 12        -3.4789806857e-04
 13        -6.0118527864e-05
 14        -1.3608075325e-06
 15        -2.0235071398e-06
 16         9.7166791032e-07
 17         1.7607323924e-06
 18         7.0342608167e-06
 19        -6.3760081999e-07
 20         2.1659722060e-06
 21         3.6219402111e-07
 22        -1.5203528105e-05
 23        -1.6127148351e-06
 24         2.3350990445e-05
 25        -1.4795677607e-05
 26         6.8223298626e-05
 27         7.4922093173e-07
 28        -6.7246174878e-04
 29         5.3695255964e-04
 30         4.0622597959e-04
 31         9.0922917119e-05
 32         1.1679092903e-05
 33         2.7515781988e-06
 34        -9.0092620158e-06
 35         1.2887874452e-05
 36         1.0439756333e-05
 37        -4.6651063592e-06
 38         1.4675998864e-05
 39         4.6198142523e-06
 40        -1.9203951714e-06
 41        -5.6533932113e-06
 42        -1.6860301129e-04
 43        -1.8521153115e-05
 44         3.8914452761e-05
 45         3.6243223547e-05
 46         1.8150779704e-03
 47        -7.7254026954e-04
 48        -8.5380105738e-04
 49        -2.5295649107e-04
 50        -3.2172143553e-05
 51         9.1245846712e-06
 52         2.5475134142e-05
 53        -2.4151575845e-05
 54         6.9386511404e-06
 55         9.3404405692e-08
 56         1.1035505920e-07
 57         1.2710421691e-05
 58        -8.2639028530e-06
 59        -2.2823552162e-06
 60         3.6921162941e-05
 61        -4.8776541540e-05
 62         3.6783485582e-05
 63         3.9953591659e-06
 64        -1.1071036387e-03
 65        -6.1188146072e-04
 66         5.8479120570e-05
 67         7.9574210559e-05
 68         1.0396552896e-05
 69         4.3266482189e-06
 70        -5.0352089384e-06
 71         2.1940785684e-06
 72         7.2426389407e-06
 73        -3.0398125024e-06
 74         3.2871354176e-05
 75         7.2334362879e-05
 76         9.8531059096e-06
 77        -1.1409894545e-04
 78        -1.0194443264e-04
 79         7.1510914062e-06
 80        -7.5579483040e-05
 81        -9.3152031590e-05
 82        -2.3609697980e-07
 83         1.3062697769e-06
 84         1.9717610583e-06
 85        -1.7381280498e-06
 86        -4.0151469726e-07
 87        -4.9753152215e-06
 88        -9.4172646328e-06
 89        -2.2850113496e-06
 90        -1.1300375664e-06
 91         1.2518185474e-04
 92         9.1690287573e-05
 93         2.1976518375e-04
 94         5.5182057720e-05
 95         2.0737967897e-06
 96        -4.0177267705e-06
 97        -1.3229458322e-06
 98        -1.5865428704e-06
 99        -4.4965747811e-06
100         4.9504194052e-08
101         1.3956795061e-07
102        -1.6505158007e-06
103        -4.0099022941e-06
104        -8.3590747045e-06
105         1.7705771019e-06
106         2.6431653989e-06
107         1.3235177065e-05
108         2.6620318726e-05
109         4.1311159406e-05
110        -1.5765153988e-05
111        -1.0991290171e-05
112        -5.7417232852e-05
113         5.5750681594e-06
114         3.5051839530e-06
115        -1.5749640883e-06
116         1.7846952276e-07
117        -4.5719156056e-06
118         1.5681978277e-07
119        -8.9138640997e-07
120        -1.5470056895e-06
121         3.3307819364e-07
122         1.3686824080e-06
123         7.3211402558e-06
124         6.2685327954e-06
125        -1.0637531553e-06
126        -3.9048169779e-06
127        -1.1932190429e-04
128        -8.3232374812e-06
129         5.8571624253e-05
130        -8.2807879010e-06
131        -3.2748381679e-07
132        -4.6883357871e-07
133         2.1047639065e-06
134         3.9786522741e-06
135         1.0995829853e-06
136        -3.6309528313e-06
137         1.1116316374e-05
138        -1.4052089804e-05
139         5.3830127661e-06
140         1.2362343638e-06
141        -1.5510250152e-04
142         4.6161270624e-05
143        -9.2367704083e-06
144         1.1565323954e-05
145         1.7742177756e-03
146         5.9694214058e-04
147         6.8990325077e-04
148        -2.5132656815e-04
149        -2.4316422539e-05
150        -4.1363848667e-05
151         4.1588184353e-06
152         2.2991119671e-05
153        -1.7782103849e-05
154        -1.6498296623e-07
155         2.7181682437e-05
156         2.2537612964e-04
157         6.6545537937e-06
158        -1.8372571191e-05
159         1.0314959017e-07
160         9.1541593191e-07
161        -2.6022313723e-05
162         2.3348004846e-04
163         6.8757999382e-06
164        -3.6444891968e-05
165         1.0432366891e-05
166        -2.3290387666e-03
167         4.3742475020e-04
168        -1.0603624970e-03
169         1.8037642107e-04
170         1.3482114923e-05
171         7.2329266144e-06
172        -3.3538945660e-05
173        -1.8849108902e-05
174        -1.9508687676e-05
175         2.5064613396e-06
176        -1.1362991165e-04
177        -5.4530354463e-05
178        -1.2895636138e-01
179        -3.7895054076e-01
180         6.3833341444e-01
181         4.8934137891e-01
182         4.7232519483e-02
183        -7.4339978309e-03
184         2.3146856261e-03
185        -1.1875865890e-03
186        -1.7985128249e-05
187         3.8376287210e-05
188         8.8530850877e-05
189        -1.4986074962e-04
190         3.1912779230e-04
191         7.3562971018e-04
192        -1.6435933934e-05
193         3.7277497616e-05
194         8.7664151601e-05
195        -8.0933392545e-06
196         6.7724159555e-06
197         1.2999217307e-06
198         3.3818705769e-05
199        -5.6754506037e-05
200        -9.6920438708e-05
201        -6.8640081168e-05
202         1.3992857272e-04
203         2.4266197755e-04
204         7.6209782115e-05
205        -1.4531876515e-04
206        -3.4617612428e-04
207         4.9567953233e-05
208        -1.5923923234e-05
209         4.0599360585e-05
210        -8.1477460303e-06
211        -8.2931374708e-06
212        -4.8850309813e-06
213         2.2418333118e-06
214        -6.9055081474e-06
215         6.5969692790e-06
216         6.6812949927e-06
217        -2.1592903842e-06
218        -3.8671047816e-06
219         1.3656619716e-05
220        -1.5703443628e-05
221        -1.5032538149e-05
 Sym= A
 Ene=        -5.8719164196e+01
 Spin= Alpha
 Occup=         0.0000000000e+00
  1         8.6004634039e-07
  2        -2.7603681863e-06
  3         4.5873692995e-07
  4         5.1052312919e-06
  5         2.4322193936e-06
  6         4.6251015751e-06
  7        -4.8790136668e-06
  8        -2.3773635769e-05
  9        -9.1877215286e-06
 10         3.7417031558e-05
 11         3.8304953389e-05
 12        -5.4384995328e-05
 13         8.5460925508e-06
 14        -3.3194978793e-06
 15         3.0749854772e-06
 16        -2.6179794318e-06
 17        -2.9599375062e-06
 18         2.4476281145e-06
 19         5.2864176293e-07
 20        -1.7996401651e-06
 21         4.5983071745e-07
 22         3.7778767510e-06
 23         2.5171448926e-06
 24         1.7827951168e-05
 25        -1.4969522107e-06
 26        -1.7341874841e-05
 27        -1.0969819178e-05
 28         1.3660744050e-04
 29        -3.1839613724e-05
 30        -3.9468255519e-05
 31         6.2525428288e-06
 32         9.4532517016e-06
 33        -4.7307332184e-06
 34        -3.0889021032e-06
 35        -2.8535020489e-06
 36         8.4763371096e-06
 37        -9.7256553619e-07
 38         3.6891128845e-06
 39        -2.9471422217e-06
 40        -1.7450620321e-05
 41        -9.8971997812e-06
 42        -1.2418885971e-06
 43         8.8823271676e-06
 44         7.8615944238e-05
 45         3.9309030420e-05
 46        -3.2660106810e-04
 47         3.8706978398e-04
 48        -4.7613315575e-06
 49         7.0524567565e-05
 50        -6.0387557926e-06
 51        -1.1911592584e-05
 52        -1.7611267438e-05
 53         1.0923312026e-05
 54         1.0731489316e-06
 55         1.1372751025e-06
 56        -3.6238015804e-06
 57        -7.4863240470e-07
 58         9.2105045720e-07
 59         2.5300849076e-06
 60         3.7459041763e-05
 61         8.0094287041e-06
 62        -1.1650660115e-05
 63        -1.2557622303e-05
 64        -1.5884044596e-04
 65        -1.1751986371e-04
 66         7.0597617602e-05
 67         2.5415903950e-05
 68         1.1596400541e-05
 69         7.7612894445e-06
 70         3.1471020565e-06
 71         8.3462788073e-06
 72        -2.8765379217e-06
 73        -4.4230640517e-08
 74         1.7348420550e-05
 75         1.0183768593e-05
 76         7.6325459242e-07
 77         4.8903719327e-06
 78        -6.3118390458e-06
 79         3.5512157271e-06
 80        -1.9737510610e-05
 81        -3.2443642590e-05
 82         1.8855203109e-06
 83        -7.8716152642e-06
 84        -1.4345995462e-07
 85         3.8112965224e-06
 86        -2.3394115302e-06
 87         6.1751649937e-05
 88        -4.5979504571e-06
 89        -1.8526713258e-05
 90         5.4067251411e-06
 91        -2.5144904814e-04
 92         1.2407445499e-04
 93         8.0674145905e-05
 94        -4.6474003061e-06
 95         7.4327952482e-06
 96        -3.2634123370e-06
 97        -2.5367971384e-06
 98        -4.6579516846e-06
 99         1.0022818308e-06
100         6.4588396920e-07
101        -4.4332525202e-06
102         3.4815870432e-06
103         1.5347644840e-06
104         9.2693963513e-08
105         2.9065364223e-05
106        -1.5706098968e-05
107        -3.8418884792e-06
108        -2.1817936365e-06
109        -2.0821184732e-05
110         2.6428432991e-05
111         1.9674185138e-05
112         1.0890530407e-05
113         4.0589405229e-06
114        -3.2825295267e-06
115        -7.3989769275e-07
116        -1.3404360170e-06
117        -2.3531700838e-06
118         3.4776323438e-07
119        -2.4210864828e-06
120         2.0262039602e-07
121         1.4093051765e-06
122        -8.7034095232e-07
123         1.4748057999e-05
124        -1.2485042638e-06
125        -6.1133386646e-06
126         2.8556646807e-06
127        -6.0856712912e-05
128         1.0246100345e-06
129         1.9773698020e-05
130        -5.3296289434e-06
131        -7.1993668192e-07
132         2.3030554409e-07
133        -3.0041146954e-07
134         2.3387022582e-07
135         2.7694299096e-06
136        -3.0096475448e-06
137         9.7858044052e-06
138         5.1439515765e-06
139        -1.7175667537e-06
140        -5.5412403985e-06
141        -5.3710093712e-05
142        -4.4231084455e-05
143         1.5447899938e-05
144         4.0718437873e-05
145        -8.6277230368e-05
146        -1.2898686477e-04
147        -1.0413142179e-05
148         2.5505198977e-05
149        -3.6283074253e-06
150         8.4466767592e-06
151         1.1333600929e-05
152         1.1890757660e-05
153         2.7833715061e-06
154         2.0461353270e-05
155        -7.4528652100e-05
156        -4.5129452063e-06
157        -2.0477602396e-07
158         3.2119499070e-06
159        -2.1167757291e-06
160         1.0263774923e-05
161         1.8703498606e-05
162        -2.0359568593e-04
163         2.4435335905e-05
164        -5.7708031141e-05
165        -8.0065942537e-05
166         8.7021434100e-04
167        -1.1907128116e-04
168         2.2094418592e-04
169        -3.1014602550e-04
170         6.6434179536e-05
171        -1.5902946728e-05
172         5.1765258309e-05
173        -1.9649346759e-05
174         5.2731645339e-06
175         1.9540515781e-05
176        -8.2740813060e-05
177         6.7969277264e-05
178         1.1989161992e-04
179         3.5559789199e-04
180        -6.5690423962e-04