&FCI NORB=9,NELEC=0,MS2=0
ORBSYM=1,1,1,1,
ISYM=1,
/
      6.12473151541680360666e-01 	 1 1 1 1
     -4.65393298273374111940e-03 	 1 1 2 1
      1.65816347481963999311e-01 	 1 1 2 2
     -5.99922347409873827490e-03 	 1 1 3 1
     -3.44619226360958191141e-03 	 1 1 3 2
      1.18370456702075965705e-01 	 1 1 3 3
      3.82918537195482385285e-03 	 1 1 4 1
      1.01188769203594823749e-03 	 1 1 4 2
     -1.31723522334057448376e-03 	 1 1 4 3
      3.28775536341096574766e-01 	 1 1 4 4
     -4.76874493758072184879e-02 	 1 1 5 1
     -7.70311135946321386830e-03 	 1 1 5 2
     -3.71094741719444135009e-03 	 1 1 5 3
     -1.13472611753881215402e-02 	 1 1 5 4
      2.35221685364486399195e-01 	 1 1 5 5
      9.60059217842154123679e-03 	 1 1 6 1
      6.22207048099471769775e-03 	 1 1 6 2
     -1.99229886853273183145e-03 	 1 1 6 3
      1.01620574775373243015e-02 	 1 1 6 4
      2.37308761234400686368e-02 	 1 1 6 5
      1.76497674272094146053e-01 	 1 1 6 6
     -3.91619013109701947367e-03 	 1 1 7 1
     -1.87032225547703536035e-03 	 1 1 7 2
      1.82772009667525386564e-03 	 1 1 7 3
      1.81423292655375212323e-02 	 1 1 7 4
      9.69951162902406641142e-03 	 1 1 7 5
     -1.04317706375930650819e-02 	 1 1 7 6
      3.30858511894827289623e-01 	 1 1 7 7
      1.91742793791877218224e-02 	 1 1 8 1
      8.23459267718100115796e-03 	 1 1 8 2
     -3.62330407410326685996e-03 	 1 1 8 3
     -3.08205920207496554195e-03 	 1 1 8 4
      3.28388482598907221338e-03 	 1 1 8 5
      2.30891341423239285571e-03 	 1 1 8 6
     -1.46498974630098594517e-03 	 1 1 8 7
      1.35193454233037496648e-01 	 1 1 8 8
      8.28692810977359022029e-03 	 1 1 9 1
      5.36123137211868324575e-03 	 1 1 9 2
     -2.17198164589839766642e-04 	 1 1 9 3
      1.27218289358351048512e-02 	 1 1 9 4
      2.24483494498162496067e-02 	 1 1 9 5
      1.39437637116794150216e-04 	 1 1 9 6
     -1.16969952694790050446e-02 	 1 1 9 7
      7.29293408894567205675e-03 	 1 1 9 8
      1.83904004551788929911e-01 	 1 1 9 9
     -4.65393298273378188540e-03 	 2 1 1 1
      1.51061671876115974703e-03 	 2 1 2 1
     -3.25466484514759166191e-03 	 2 1 2 2
     -4.17115397883461224912e-05 	 2 1 3 1
      2.88956292370872076542e-04 	 2 1 3 2
      6.69980042245845093009e-04 	 2 1 3 3
     -1.78232458594063938526e-04 	 2 1 4 1
     -1.66514155347316050552e-04 	 2 1 4 2
     -1.13924216171401270479e-04 	 2 1 4 3
     -2.50625436525345277744e-03 	 2 1 4 4
      2.84755479299268277407e-04 	 2 1 5 1
      1.04713984996895577775e-03 	 2 1 5 2
     -3.07369768487910166393e-05 	 2 1 5 3
      1.75676924566397769760e-04 	 2 1 5 4
     -2.98213465056105381246e-03 	 2 1 5 5
      4.60678270588577812739e-04 	 2 1 6 1
     -2.52368888222531976770e-04 	 2 1 6 2
      2.59117690112866056254e-04 	 2 1 6 3
     -4.95935422989935844012e-05 	 2 1 6 4
     -1.66850742539346650044e-04 	 2 1 6 5
     -1.96406994111094929806e-03 	 2 1 6 6
      2.04053943095911172667e-04 	 2 1 7 1
      8.65784256802932031521e-05 	 2 1 7 2
      1.21064830220670035209e-04 	 2 1 7 3
     -1.77259303565806475896e-04 	 2 1 7 4
     -1.07084666933812572309e-04 	 2 1 7 5
      2.82482897809187207417e-05 	 2 1 7 6
     -2.98554347621804482341e-03 	 2 1 7 7
     -3.19348395909070022913e-06 	 2 1 8 1
     -1.06075726987860455286e-03 	 2 1 8 2
     -6.51662200378397206846e-05 	 2 1 8 3
      2.26949033737652183145e-04 	 2 1 8 4
      4.02835076450762917272e-05 	 2 1 8 5
     -1.22764993516155527164e-04 	 2 1 8 6
     -9.91687794811618234707e-05 	 2 1 8 7
     -3.02055404642760216144e-03 	 2 1 8 8
      2.10360727422895260217e-04 	 2 1 9 1
     -3.93035885838992511947e-04 	 2 1 9 2
     -7.73714875928510116294e-05 	 2 1 9 3
     -4.39716530177066680304e-04 	 2 1 9 4
     -4.48860973486953627500e-04 	 2 1 9 5
      6.73442439415531258606e-05 	 2 1 9 6
      2.90671408010947452186e-04 	 2 1 9 7
     -3.06376228578941007998e-04 	 2 1 9 8
     -3.28017463048535648160e-03 	 2 1 9 9
      1.65816347481963888288e-01 	 2 2 1 1
     -3.25466484514757648308e-03 	 2 2 2 1
      3.02594979958469345593e-01 	 2 2 2 2
      2.82269860206102235142e-03 	 2 2 3 1
      5.72879263274370977010e-03 	 2 2 3 2
      1.78966815676312174244e-01 	 2 2 3 3
      6.18490141286860109666e-04 	 2 2 4 1
     -1.16259026960188773772e-04 	 2 2 4 2
      2.44546509692024783417e-03 	 2 2 4 3
      1.44534443974543985734e-01 	 2 2 4 4
      7.10284307113415429996e-03 	 2 2 5 1
     -1.20355331135499812184e-02 	 2 2 5 2
      2.02948966356945653330e-03 	 2 2 5 3
      3.96813454505105366737e-03 	 2 2 5 4
      2.28595707744943421602e-01 	 2 2 5 5
     -5.40485956208694353492e-03 	 2 2 6 1
      7.60200789426457041592e-03 	 2 2 6 2
     -2.30700443485882351544e-03 	 2 2 6 3
     -5.71817748995138378648e-03 	 2 2 6 4
     -8.90984288981087890757e-03 	 2 2 6 5
      2.28333143445739183974e-01 	 2 2 6 6
     -1.40170245694293585902e-03 	 2 2 7 1
     -6.10224731699942338952e-05 	 2 2 7 2
     -3.06438293466322880104e-03 	 2 2 7 3
     -5.85659868602495230910e-03 	 2 2 7 4
     -6.68938579994361303543e-03 	 2 2 7 5
      5.83230395448852082657e-03 	 2 2 7 6
      1.46706279707028264259e-01 	 2 2 7 7
     -3.56290783121933135255e-03 	 2 2 8 1
      9.64384683563521420864e-04 	 2 2 8 2
     -1.40958348747542315180e-03 	 2 2 8 3
     -3.29531318559746167970e-03 	 2 2 8 4
     -9.14540831573980826652e-03 	 2 2 8 5
     -1.12450689945459408187e-03 	 2 2 8 6
      3.08585411138510108328e-03 	 2 2 8 7
      2.53941395570229155876e-01 	 2 2 8 8
     -3.13985381006168153689e-03 	 2 2 9 1
     -1.08111040240232362912e-03 	 2 2 9 2
     -2.67237845304547742831e-03 	 2 2 9 3
     -4.10733106857154620876e-04 	 2 2 9 4
     -2.50330894077038876994e-03 	 2 2 9 5
      3.19462463142963434826e-03 	 2 2 9 6
      4.08605448926489464578e-03 	 2 2 9 7
      8.16806349944090848147e-03 	 2 2 9 8
      2.27836849542069119767e-01 	 2 2 9 9
     -5.99922347409874261170e-03 	 3 1 1 1
     -4.17115397883457701255e-05 	 3 1 2 1
      2.82269860206103015768e-03 	 3 1 2 2
      5.41686099020699074295e-04 	 3 1 3 1
      1.01613682503100114830e-04 	 3 1 3 2
     -3.45661623601068151296e-03 	 3 1 3 3
     -2.18391875133549974040e-05 	 3 1 4 1
     -3.16987198932502231758e-05 	 3 1 4 2
      4.44174739746563680513e-04 	 3 1 4 3
     -2.25693468544761093389e-03 	 3 1 4 4
      7.18361169099671482800e-04 	 3 1 5 1
      4.33301596495189156842e-04 	 3 1 5 2
      9.22558823150054926020e-04 	 3 1 5 3
      2.17030584331326679764e-04 	 3 1 5 4
      1.93075760476583936295e-03 	 3 1 5 5
     -3.71649981002388960470e-04 	 3 1 6 1
     -3.41474488806718765206e-04 	 3 1 6 2
     -4.79031592290191218699e-04 	 3 1 6 3
     -2.26987020806745053419e-04 	 3 1 6 4
     -3.50036645445513572208e-04 	 3 1 6 5
      2.74238892145822928115e-03 	 3 1 6 6
     -3.41603911079505962356e-05 	 3 1 7 1
     -8.51595674412465808651e-05 	 3 1 7 2
     -3.59887252384151208173e-04 	 3 1 7 3
     -4.47414572362672647524e-04 	 3 1 7 4
     -5.43141017531151466813e-04 	 3 1 7 5
      3.43454987830949399347e-04 	 3 1 7 6
     -2.34389132129667835530e-03 	 3 1 7 7
     -4.23917317011440536109e-04 	 3 1 8 1
     -3.39100930983356543824e-04 	 3 1 8 2
      2.46071118647458058390e-05 	 3 1 8 3
     -3.56816126818357119439e-04 	 3 1 8 4
     -1.04163218923015695253e-03 	 3 1 8 5
     -1.14810780876447210462e-04 	 3 1 8 6
      3.55074146367136979884e-04 	 3 1 8 7
      3.17295807458657218997e-03 	 3 1 8 8
     -3.21754581012504759820e-04 	 3 1 9 1
     -1.39949108958090567617e-04 	 3 1 9 2
     -8.03593089600354603709e-04 	 3 1 9 3
     -1.76622149338821179867e-04 	 3 1 9 4
     -3.74520543645884588461e-04 	 3 1 9 5
      7.21584805634665473958e-04 	 3 1 9 6
      4.59337138566556866387e-04 	 3 1 9 7
      7.13860653994825280697e-04 	 3 1 9 8
      6.52689825610725101943e-04 	 3 1 9 9
     -3.44619226360958668190e-03 	 3 2 1 1
      2.88956292370864432917e-04 	 3 2 2 1
      5.72879263274370109649e-03 	 3 2 2 2
      1.01613682503100141935e-04 	 3 2 3 1
      2.21579904127678500858e-03 	 3 2 3 2
      5.98024604860711642140e-03 	 3 2 3 3
     -2.95096027467024594245e-04 	 3 2 4 1
      2.26496029313070682638e-04 	 3 2 4 2
      2.36784465969580928957e-04 	 3 2 4 3
     -5.21605793082814163386e-03 	 3 2 4 4
      7.71108394310617744141e-04 	 3 2 5 1
     -1.61822015667221217119e-03 	 3 2 5 2
      4.15445915476002477704e-04 	 3 2 5 3
      4.02300188773991468111e-04 	 3 2 5 4
     -6.54715703872888084291e-04 	 3 2 5 5
     -3.03813360042505466348e-04 	 3 2 6 1
      1.05193596763732458675e-03 	 3 2 6 2
     -2.49229219022165104924e-04 	 3 2 6 3
     -5.97302007280122869599e-04 	 3 2 6 4
     -1.46991359690647584516e-03 	 3 2 6 5
     -1.62590301690813715703e-03 	 3 2 6 6
      2.71340997452139453053e-04 	 3 2 7 1
      3.17765121720614305092e-05 	 3 2 7 2
      5.24092410814227955000e-05 	 3 2 7 3
     -4.34653992409890174188e-04 	 3 2 7 4
     -5.69228548075292593877e-05 	 3 2 7 5
      5.17764636842851116473e-04 	 3 2 7 6
     -3.95298579418096665550e-03 	 3 2 7 7
     -1.35805864945691613004e-04 	 3 2 8 1
     -3.94599627735091806544e-04 	 3 2 8 2
      9.96018010775702152329e-04 	 3 2 8 3
      4.47281975966784713095e-04 	 3 2 8 4
      5.33257616078177602674e-04 	 3 2 8 5
     -2.07776250015873066807e-05 	 3 2 8 6
     -3.73520513232359567101e-04 	 3 2 8 7
      4.08970131361241408946e-03 	 3 2 8 8
      1.69634932409908284826e-04 	 3 2 9 1
     -6.06383012054487234924e-04 	 3 2 9 2
     -1.91377158087029992277e-04 	 3 2 9 3
     -1.44695130562638062588e-04 	 3 2 9 4
     -8.22887885400939886023e-05 	 3 2 9 5
     -8.49745199760961519159e-04 	 3 2 9 6
     -1.28950937776381421081e-05 	 3 2 9 7
     -1.00463692193223101852e-03 	 3 2 9 8
      2.98623937474242579990e-03 	 3 2 9 9
      1.18370456702075979583e-01 	 3 3 1 1
      6.69980042245843358285e-04 	 3 3 2 1
      1.78966815676312174244e-01 	 3 3 2 2
     -3.45661623601068238032e-03 	 3 3 3 1
      5.98024604860710254361e-03 	 3 3 3 2
      4.41542829092717692419e-01 	 3 3 3 3
      1.07840767086593201061e-03 	 3 3 4 1
      3.47568123759665848979e-03 	 3 3 4 2
     -3.06703553145957910978e-03 	 3 3 4 3
      1.05305699283720591297e-01 	 3 3 4 4
      7.54165912512490786701e-03 	 3 3 5 1
      2.72876668550184071221e-03 	 3 3 5 2
     -7.21881623276727103083e-03 	 3 3 5 3
      1.32114861627235825881e-02 	 3 3 5 4
      1.81275382884564517649e-01 	 3 3 5 5
     -1.92312862372095972306e-03 	 3 3 6 1
      3.76497998199267598033e-04 	 3 3 6 2
      6.66602612782116448614e-03 	 3 3 6 3
     -8.08021906219787318382e-03 	 3 3 6 4
     -1.69020643348140320317e-02 	 3 3 6 5
      1.84548225934981990903e-01 	 3 3 6 6
     -1.94213917595064647532e-04 	 3 3 7 1
     -4.07957212979777664435e-04 	 3 3 7 2
      3.86390559247680974442e-03 	 3 3 7 3
     -5.26105230449566522999e-03 	 3 3 7 4
     -4.48246055283278536929e-03 	 3 3 7 5
      6.17427376522118771807e-03 	 3 3 7 6
      1.11459420205882606125e-01 	 3 3 7 7
      1.07372726457847264374e-03 	 3 3 8 1
      7.58415204684659456646e-03 	 3 3 8 2
      5.92644276177465862548e-03 	 3 3 8 3
      9.00969798640654899458e-03 	 3 3 8 4
      2.65332004965612607006e-02 	 3 3 8 5
     -1.63470734727740800267e-03 	 3 3 8 6
     -2.87320455185295642320e-03 	 3 3 8 7
      2.16169355917586070159e-01 	 3 3 8 8
     -6.65854583495349445360e-03 	 3 3 9 1
     -4.82264594215085599938e-03 	 3 3 9 2
      5.39395566726344043856e-03 	 3 3 9 3
     -1.06233007401867664971e-02 	 3 3 9 4
     -2.09668476215209079183e-02 	 3 3 9 5
     -1.42664247515515933001e-02 	 3 3 9 6
      2.63785375334287322535e-03 	 3 3 9 7
     -1.79854349893037966657e-02 	 3 3 9 8
      2.25905786415708270676e-01 	 3 3 9 9
      3.82918537195480000040e-03 	 4 1 1 1
     -1.78232458594074130026e-04 	 4 1 2 1
      6.18490141286844063474e-04 	 4 1 2 2
     -2.18391875133553599341e-05 	 4 1 3 1
     -2.95096027467024431615e-04 	 4 1 3 2
      1.07840767086594892417e-03 	 4 1 3 3
      4.41947169398329044177e-03 	 4 1 4 1
      3.21932431656405965842e-04 	 4 1 4 2
     -1.20992378602649769750e-04 	 4 1 4 3
      1.08727233626725074134e-02 	 4 1 4 4
     -1.18796746021707238269e-04 	 4 1 5 1
      6.61528919990105783791e-04 	 4 1 5 2
      2.58200483884797723968e-04 	 4 1 5 3
     -2.42237319097085687571e-04 	 4 1 5 4
      2.58718841658908509096e-03 	 4 1 5 5
      5.17736694649825269013e-04 	 4 1 6 1
     -5.23350714054196313949e-04 	 4 1 6 2
     -1.71946806125475640508e-04 	 4 1 6 3
      6.97232825313461555827e-04 	 4 1 6 4
     -1.57561770054765007713e-04 	 4 1 6 5
      3.83829682485494925667e-03 	 4 1 6 6
      1.21205805506406833795e-03 	 4 1 7 1
     -2.62317237978202495111e-04 	 4 1 7 2
     -2.12169691823623542950e-04 	 4 1 7 3
      6.11872848169710639200e-04 	 4 1 7 4
     -7.55291671448413961740e-04 	 4 1 7 5
      1.65694606871358805777e-04 	 4 1 7 6
     -1.95266778858008745873e-03 	 4 1 7 7
      1.81632397036430681507e-04 	 4 1 8 1
      2.10036119720934886515e-04 	 4 1 8 2
     -2.19062687365190926839e-04 	 4 1 8 3
     -4.00719769910581126741e-05 	 4 1 8 4
     -2.98717047796895232396e-04 	 4 1 8 5
     -4.06455620915913314051e-05 	 4 1 8 6
      4.11658469475757174058e-04 	 4 1 8 7
      1.01954296322784234048e-03 	 4 1 8 8
     -2.37819738554005883410e-04 	 4 1 9 1
     -8.66455232243830718092e-05 	 4 1 9 2
     -2.20137062254753649053e-04 	 4 1 9 3
      4.06641291578261005260e-04 	 4 1 9 4
     -5.93360712650050216126e-04 	 4 1 9 5
      4.69056317240482936910e-04 	 4 1 9 6
      4.50277823279895115550e-04 	 4 1 9 7
      4.18195946153621382797e-04 	 4 1 9 8
      4.75117742309412232835e-04 	 4 1 9 9
      1.01188769203596146476e-03 	 4 2 1 1
     -1.66514155347313665308e-04 	 4 2 2 1
     -1.16259026960187066154e-04 	 4 2 2 2
     -3.16987198932510227749e-05 	 4 2 3 1
      2.26496029313066454250e-04 	 4 2 3 2
      3.47568123759665675507e-03 	 4 2 3 3
      3.21932431656404610589e-04 	 4 2 4 1
      1.59187136249480860363e-03 	 4 2 4 2
     -2.86395779761558651709e-04 	 4 2 4 3
      6.21285342009682967079e-03 	 4 2 4 4
      1.84884746495382476994e-04 	 4 2 5 1
      6.34955435132809973414e-04 	 4 2 5 2
      2.92075843040839541742e-04 	 4 2 5 3
      1.74925840188237596493e-04 	 4 2 5 4
      1.05177675966820391960e-03 	 4 2 5 5
     -8.03708669058266292080e-05 	 4 2 6 1
     -9.51586551955652766230e-04 	 4 2 6 2
     -1.97083101275904244883e-04 	 4 2 6 3
      2.14452151894503227278e-04 	 4 2 6 4
     -9.55456953980768006196e-04 	 4 2 6 5
      2.05236148819278128169e-03 	 4 2 6 6
     -1.27597426234234666287e-04 	 4 2 7 1
     -7.46836768372668405487e-04 	 4 2 7 2
     -4.46329620100481896938e-05 	 4 2 7 3
      1.74102960140681622351e-04 	 4 2 7 4
     -6.05368440672576888124e-04 	 4 2 7 5
      1.77439748559872229744e-04 	 4 2 7 6
     -3.20195729218043106685e-04 	 4 2 7 7
      1.95091307822605776728e-04 	 4 2 8 1
      1.72376177013221291686e-04 	 4 2 8 2
      7.81455252402907322691e-05 	 4 2 8 3
      1.34268139884633847187e-04 	 4 2 8 4
     -1.25636938811295265648e-04 	 4 2 8 5
     -8.92299469478733276590e-05 	 4 2 8 6
      1.37627434822961574636e-04 	 4 2 8 7
      2.64486451323578874648e-03 	 4 2 8 8
     -4.19402754578230066700e-04 	 4 2 9 1
     -3.39985888091998925825e-04 	 4 2 9 2
     -1.17951259068902353797e-04 	 4 2 9 3
      5.78679085611012115203e-05 	 4 2 9 4
     -1.51894424103066368048e-03 	 4 2 9 5
      4.68958668816732090773e-04 	 4 2 9 6
      3.29635241336542490331e-04 	 4 2 9 7
      2.76081637218194376809e-05 	 4 2 9 8
     -8.41798364989901847476e-04 	 4 2 9 9
     -1.31723522334057578480e-03 	 4 3 1 1
     -1.13924216171401677055e-04 	 4 3 2 1
      2.44546509692023959423e-03 	 4 3 2 2
      4.44174739746564331035e-04 	 4 3 3 1
      2.36784465969580034490e-04 	 4 3 3 2
     -3.06703553145958041082e-03 	 4 3 3 3
     -1.20992378602649322517e-04 	 4 3 4 1
     -2.86395779761558380658e-04 	 4 3 4 2
      9.21315284173970078761e-04 	 4 3 4 3
     -6.39826724812500753636e-03 	 4 3 4 4
      3.37257737344599209557e-04 	 4 3 5 1
      4.13197711540192076912e-04 	 4 3 5 2
      1.53567579654709999819e-03 	 4 3 5 3
      3.23479138653895328774e-04 	 4 3 5 4
      2.36851229570124834425e-03 	 4 3 5 5
     -2.51852130207256435547e-04 	 4 3 6 1
     -3.29736771469333527027e-04 	 4 3 6 2
     -7.53671377741359487662e-04 	 4 3 6 3
     -3.62813691344898616841e-04 	 4 3 6 4
     -1.25774845727149464257e-04 	 4 3 6 5
      2.58266340336722396986e-03 	 4 3 6 6
     -2.07705306037717009771e-04 	 4 3 7 1
     -1.23464372184235032792e-04 	 4 3 7 2
     -4.27189746904479744540e-04 	 4 3 7 3
     -4.17815336547396921907e-04 	 4 3 7 4
     -3.50034592639896023191e-04 	 4 3 7 5
      1.88830433155408073135e-04 	 4 3 7 6
     -1.02898334732918252934e-04 	 4 3 7 7
     -2.40163024032632516818e-04 	 4 3 8 1
     -1.63301503016402349078e-04 	 4 3 8 2
      7.24094923300422983921e-04 	 4 3 8 3
     -3.61294962949387614415e-04 	 4 3 8 4
     -9.11771240976463740770e-04 	 4 3 8 5
      8.03838237538201535147e-05 	 4 3 8 6
      3.25143701261054339415e-04 	 4 3 8 7
      2.35475023308102070219e-03 	 4 3 8 8
     -1.91614474724460803756e-04 	 4 3 9 1
     -1.27595901749187541933e-04 	 4 3 9 2
     -1.29331381278297388206e-03 	 4 3 9 3
     -3.76894221541161406237e-04 	 4 3 9 4
     -3.07961174926709064809e-04 	 4 3 9 5
      5.26424573998271385505e-04 	 4 3 9 6
      2.64407976812834914684e-04 	 4 3 9 7
      6.28285091789030172328e-04 	 4 3 9 8
      9.93102158405631757834e-04 	 4 3 9 9
      3.28775536341096796811e-01 	 4 4 1 1
     -2.50625436525345494584e-03 	 4 4 2 1
      1.44534443974543957978e-01 	 4 4 2 2
     -2.25693468544761700542e-03 	 4 4 3 1
     -5.21605793082813729705e-03 	 4 4 3 2
      1.05305699283720632931e-01 	 4 4 3 3
      1.08727233626725455773e-02 	 4 4 4 1
      6.21285342009684268122e-03 	 4 4 4 2
     -6.39826724812502228151e-03 	 4 4 4 3
      6.74135547124555367660e-01 	 4 4 4 4
     -2.16562000935018560133e-02 	 4 4 5 1
     -4.59860523879316532986e-03 	 4 4 5 2
     -8.70370943396574811395e-04 	 4 4 5 3
     -2.36728621676055780987e-02 	 4 4 5 4
      1.78198057926159059150e-01 	 4 4 5 5
      7.26301963889841931121e-03 	 4 4 6 1
      3.48960653902143655772e-03 	 4 4 6 2
     -1.17320205113487924242e-03 	 4 4 6 3
      2.35425791761582382799e-02 	 4 4 6 4
      1.40236543655750511145e-02 	 4 4 6 5
      1.60927641436441892786e-01 	 4 4 6 6
      1.41810442867878095004e-03 	 4 4 7 1
     -1.31968455577875093399e-03 	 4 4 7 2
      7.27743241654930917133e-05 	 4 4 7 3
      2.23551460339207058725e-02 	 4 4 7 4
      3.00929601764974652758e-03 	 4 4 7 5
     -6.01345473025489875990e-03 	 4 4 7 6
      2.14713824605174935511e-01 	 4 4 7 7
      8.06462271226976619432e-03 	 4 4 8 1
      7.06019139127833476877e-03 	 4 4 8 2
     -3.45360240764124937565e-03 	 4 4 8 3
     -5.03463679339499932397e-03 	 4 4 8 4
     -3.35216327417209769470e-04 	 4 4 8 5
      1.35730022841358697260e-05 	 4 4 8 6
      3.95710044244633257163e-04 	 4 4 8 7
      1.17389509233472813521e-01 	 4 4 8 8
      2.61753530150865424200e-03 	 4 4 9 1
      4.93822390649863596918e-03 	 4 4 9 2
     -1.45246431505327501695e-03 	 4 4 9 3
      2.98919970874528748150e-02 	 4 4 9 4
      1.09472796847764758388e-02 	 4 4 9 5
      1.51844457848588623369e-03 	 4 4 9 6
     -4.48983109158845004882e-03 	 4 4 9 7
      5.80340158643766895752e-03 	 4 4 9 8
      1.43935300236319146938e-01 	 4 4 9 9
     -4.76874493758070311378e-02 	 5 1 1 1
      2.84755479299278739958e-04 	 5 1 2 1
      7.10284307113417771873e-03 	 5 1 2 2
      7.18361169099673434364e-04 	 5 1 3 1
      7.71108394310616117838e-04 	 5 1 3 2
      7.54165912512490092812e-03 	 5 1 3 3
     -1.18796746021714041638e-04 	 5 1 4 1
      1.84884746495377923345e-04 	 5 1 4 2
      3.37257737344599697448e-04 	 5 1 4 3
     -2.16562000935019045855e-02 	 5 1 4 4
      1.02869438463449053983e-02 	 5 1 5 1
      1.63548173730163688873e-03 	 5 1 5 2
      1.91735405564526012120e-03 	 5 1 5 3
      3.20330990807918053118e-03 	 5 1 5 4
     -1.57466303672541968472e-02 	 5 1 5 5
     -6.74123352216462481089e-04 	 5 1 6 1
     -1.09583880990610856195e-03 	 5 1 6 2
     -6.38203317947969413692e-05 	 5 1 6 3
     -1.89533259663395080123e-03 	 5 1 6 4
     -7.45284811387831279406e-03 	 5 1 6 5
      1.58997966650632565309e-03 	 5 1 6 6
     -3.17891999085052532042e-05 	 5 1 7 1
     -1.82156371600204324696e-04 	 5 1 7 2
     -4.94914443519347277758e-04 	 5 1 7 3
     -2.59503992499876458971e-03 	 5 1 7 4
     -3.27564858905846773007e-03 	 5 1 7 5
      1.88648988997954522931e-03 	 5 1 7 6
     -2.09569732766982791405e-02 	 5 1 7 7
     -2.05361072177923185272e-03 	 5 1 8 1
     -1.58651967239918493570e-03 	 5 1 8 2
      3.09205173529296839692e-04 	 5 1 8 3
      1.55658870119322167557e-04 	 5 1 8 4
     -3.22724559791055755006e-03 	 5 1 8 5
     -6.59407176006523033235e-04 	 5 1 8 6
      5.13949283318633942837e-04 	 5 1 8 7
      1.15107647272449029052e-02 	 5 1 8 8
     -1.30053224629827932036e-04 	 5 1 9 1
     -1.35987439681498284774e-03 	 5 1 9 2
     -4.38600313702440145446e-04 	 5 1 9 3
     -2.08937964614423418719e-03 	 5 1 9 4
     -7.31103225572416436095e-03 	 5 1 9 5
      1.22679880990457599449e-03 	 5 1 9 6
      2.33617953162609456874e-03 	 5 1 9 7
     -4.20742755166113931598e-04 	 5 1 9 8
     -1.66713653841390877820e-03 	 5 1 9 9
     -7.70311135946316269396e-03 	 5 2 1 1
      1.04713984996894103260e-03 	 5 2 2 1
     -1.20355331135499551976e-02 	 5 2 2 2
      4.33301596495188831581e-04 	 5 2 3 1
     -1.61822015667220284706e-03 	 5 2 3 2
      2.72876668550188538134e-03 	 5 2 3 3
      6.61528919990113915307e-04 	 5 2 4 1
      6.34955435132807479749e-04 	 5 2 4 2
      4.13197711540189149566e-04 	 5 2 4 3
     -4.59860523879317573820e-03 	 5 2 4 4
      1.63548173730163190140e-03 	 5 2 5 1
      1.23177519781340581717e-02 	 5 2 5 2
      1.92841555652510025613e-03 	 5 2 5 3
      2.20648061032987976432e-03 	 5 2 5 4
     -2.93352452992387156480e-03 	 5 2 5 5
     -1.93631288972920235190e-04 	 5 2 6 1
     -5.64437929863367479633e-03 	 5 2 6 2
     -1.27009791363241406059e-03 	 5 2 6 3
     -6.70746224423392147125e-04 	 5 2 6 4
     -2.78283358858099271957e-03 	 5 2 6 5
      4.69332498079317282647e-03 	 5 2 6 6
     -6.93009512701574952910e-04 	 5 2 7 1
     -1.52918027743638505582e-03 	 5 2 7 2
     -6.35888871332366211429e-04 	 5 2 7 3
     -7.26496853929595740387e-04 	 5 2 7 4
     -3.06087825679085545616e-03 	 5 2 7 5
      1.28777466168406907500e-03 	 5 2 7 6
     -5.70932672831581111694e-03 	 5 2 7 7
     -1.62970996415295643926e-04 	 5 2 8 1
     -1.86110569735675268968e-03 	 5 2 8 2
     -5.93015228779646282574e-04 	 5 2 8 3
     -6.21136242773948727899e-04 	 5 2 8 4
     -1.80745264111424261411e-03 	 5 2 8 5
     -5.29364678702476742860e-05 	 5 2 8 6
      1.39118454024876559913e-03 	 5 2 8 7
      7.88478442030424967087e-04 	 5 2 8 8
     -1.54259415327275407719e-03 	 5 2 9 1
     -1.65933202003961939412e-03 	 5 2 9 2
     -1.32401362774431830167e-03 	 5 2 9 3
     -2.37332497140007193243e-03 	 5 2 9 4
     -6.22216402349530517402e-03 	 5 2 9 5
      4.31710441939518307225e-03 	 5 2 9 6
      2.43630633799385345334e-03 	 5 2 9 7
      1.56829666425203299168e-03 	 5 2 9 8
     -7.54649478743234063127e-03 	 5 2 9 9
     -3.71094741719443484487e-03 	 5 3 1 1
     -3.07369768487956583798e-05 	 5 3 2 1
      2.02948966356944569128e-03 	 5 3 2 2
      9.22558823150054167078e-04 	 5 3 3 1
      4.15445915476000255089e-04 	 5 3 3 2
     -7.21881623276728577598e-03 	 5 3 3 3
      2.58200483884802602878e-04 	 5 3 4 1
      2.92075843040843011189e-04 	 5 3 4 2
      1.53567579654709913083e-03 	 5 3 4 3
     -8.70370943396582400810e-04 	 5 3 4 4
      1.91735405564525404967e-03 	 5 3 5 1
      1.92841555652510697819e-03 	 5 3 5 2
      5.09491399538973283728e-03 	 5 3 5 3
      1.17773872183993873891e-03 	 5 3 5 4
     -3.59507602630548947151e-03 	 5 3 5 5
     -2.29421884129987318623e-04 	 5 3 6 1
     -1.74779040335116295050e-03 	 5 3 6 2
     -2.16014637937966304249e-03 	 5 3 6 3
     -1.81405806658402714900e-04 	 5 3 6 4
     -2.65224084321609172160e-03 	 5 3 6 5
      4.20745575294676973921e-03 	 5 3 6 6
     -3.28672160823233812810e-04 	 5 3 7 1
     -6.24054288537604587989e-04 	 5 3 7 2
     -9.04317845920320521544e-04 	 5 3 7 3
     -3.77106603862966782530e-04 	 5 3 7 4
     -2.03635054302728126657e-03 	 5 3 7 5
      4.98849060335877347166e-04 	 5 3 7 6
     -1.94721753700864762086e-03 	 5 3 7 7
     -3.33402403462886639130e-04 	 5 3 8 1
     -8.79976391935133306875e-04 	 5 3 8 2
      2.22031110387955121430e-03 	 5 3 8 3
     -7.66563911395878958693e-04 	 5 3 8 4
     -3.51539212263306038650e-03 	 5 3 8 5
     -2.51417978505254506496e-04 	 5 3 8 6
      7.84312605143849209816e-04 	 5 3 8 7
      5.48141441188575682941e-03 	 5 3 8 8
     -3.86866022346008539903e-04 	 5 3 9 1
     -7.17694711345849035988e-04 	 5 3 9 2
     -3.19521117427332352126e-03 	 5 3 9 3
     -6.56965190705518240280e-04 	 5 3 9 4
     -3.11883005168985157074e-03 	 5 3 9 5
      2.19262396788573715040e-03 	 5 3 9 6
      1.17124246964260374237e-03 	 5 3 9 7
      1.43923610353306752341e-03 	 5 3 9 8
     -4.63214066646796662069e-03 	 5 3 9 9
     -1.13472611753881232749e-02 	 5 4 1 1
      1.75676924566388608252e-04 	 5 4 2 1
      3.96813454505105973891e-03 	 5 4 2 2
      2.17030584331324646885e-04 	 5 4 3 1
      4.02300188773991576532e-04 	 5 4 3 2
      1.32114861627235860575e-02 	 5 4 3 3
     -2.42237319097071538733e-04 	 5 4 4 1
      1.74925840188238138594e-04 	 5 4 4 2
      3.23479138653895491404e-04 	 5 4 4 3
     -2.36728621676055607514e-02 	 5 4 4 4
      3.20330990807918139854e-03 	 5 4 5 1
      2.20648061032987933064e-03 	 5 4 5 2
      1.17773872183993526946e-03 	 5 4 5 3
      3.54937976015694224216e-03 	 5 4 5 4
     -5.12110061818290846630e-03 	 5 4 5 5
     -6.77765313200284161971e-04 	 5 4 6 1
     -1.56545585720888709089e-03 	 5 4 6 2
     -1.36406680377026550159e-04 	 5 4 6 3
     -1.80661622769599317442e-03 	 5 4 6 4
     -4.87739079377626661566e-03 	 5 4 6 5
      3.91678244533568298974e-03 	 5 4 6 6
     -5.84879046434182408437e-04 	 5 4 7 1
     -5.73903370716198797663e-04 	 5 4 7 2
     -1.43987020949204192746e-04 	 5 4 7 3
     -1.42582402945740874950e-03 	 5 4 7 4
     -2.54501392205414619235e-03 	 5 4 7 5
      1.13583274630282751033e-03 	 5 4 7 6
     -4.94594616420693331676e-03 	 5 4 7 7
     -3.86969634570221918124e-04 	 5 4 8 1
     -7.24276478796586188971e-04 	 5 4 8 2
      8.42413840894019346319e-05 	 5 4 8 3
      3.01304633292142536385e-04 	 5 4 8 4
     -1.17661526117474480452e-03 	 5 4 8 5
     -1.53920956328902234708e-04 	 5 4 8 6
      3.39616153183820278921e-04 	 5 4 8 7
      8.92256841266481776076e-03 	 5 4 8 8
     -8.08479438800371224064e-04 	 5 4 9 1
     -1.45518548992009787851e-03 	 5 4 9 2
     -3.06235794996687212769e-04 	 5 4 9 3
     -2.45697181715716968936e-03 	 5 4 9 4
     -5.45178648645673266659e-03 	 5 4 9 5
      1.20475073045725098418e-03 	 5 4 9 6
      1.23688046143435501599e-03 	 5 4 9 7
     -4.70430943536540057456e-04 	 5 4 9 8
      1.92249591256448619341e-03 	 5 4 9 9
      2.35221685364486510217e-01 	 5 5 1 1
     -2.98213465056104123571e-03 	 5 5 2 1
      2.28595707744943449358e-01 	 5 5 2 2
      1.93075760476583632719e-03 	 5 5 3 1
     -6.54715703872870520216e-04 	 5 5 3 2
      1.81275382884564434383e-01 	 5 5 3 3
      2.58718841658901830410e-03 	 5 5 4 1
      1.05177675966821302690e-03 	 5 5 4 2
      2.36851229570123056334e-03 	 5 5 4 3
      1.78198057926159336706e-01 	 5 5 4 4
     -1.57466303672542766445e-02 	 5 5 5 1
     -2.93352452992388067210e-03 	 5 5 5 2
     -3.59507602630548513470e-03 	 5 5 5 3
     -5.12110061818291540520e-03 	 5 5 5 4
      3.20712157779388329359e-01 	 5 5 5 5
     -3.54156122250462749787e-03 	 5 5 6 1
      1.48005996780971771538e-03 	 5 5 6 2
     -3.34035259614094606068e-03 	 5 5 6 3
     -1.35719852964377219774e-03 	 5 5 6 4
      2.30278730032191340793e-02 	 5 5 6 5
      2.47134280780699516766e-01 	 5 5 6 6
     -2.98469874177955969002e-03 	 5 5 7 1
     -2.21358007558316660993e-03 	 5 5 7 2
     -3.06192016759486256017e-03 	 5 5 7 3
     -2.29220289126617167083e-03 	 5 5 7 4
      2.42054582809221943696e-03 	 5 5 7 5
      1.23589713657135352558e-03 	 5 5 7 6
      1.77815291056328955710e-01 	 5 5 7 7
     -1.16124239741095770448e-03 	 5 5 8 1
      5.32680767164534028218e-03 	 5 5 8 2
     -4.36816374537345262358e-03 	 5 5 8 3
     -4.19489009780072991812e-03 	 5 5 8 4
      5.15115695166113406189e-03 	 5 5 8 5
     -7.06713376828506422214e-04 	 5 5 8 6
      4.93120676191225425222e-03 	 5 5 8 7
      2.06093883927957410851e-01 	 5 5 8 8
     -6.56901031626048580864e-03 	 5 5 9 1
      7.40606707453646327492e-04 	 5 5 9 2
     -1.18667436231116433555e-03 	 5 5 9 3
      1.08019106089615886911e-03 	 5 5 9 4
      1.55746310656327390659e-02 	 5 5 9 5
      4.23386977319490189799e-04 	 5 5 9 6
      1.29857837422712877121e-03 	 5 5 9 7
      9.05844177136691519614e-03 	 5 5 9 8
      2.43953833776077516626e-01 	 5 5 9 9
      9.60059217842164358547e-03 	 6 1 1 1
      4.60678270588586540567e-04 	 6 1 2 1
     -5.40485956208694526964e-03 	 6 1 2 2
     -3.71649981002387008906e-04 	 6 1 3 1
     -3.03813360042512513662e-04 	 6 1 3 2
     -1.92312862372097121560e-03 	 6 1 3 3
      5.17736694649811282805e-04 	 6 1 4 1
     -8.03708669058189449251e-05 	 6 1 4 2
     -2.51852130207253562411e-04 	 6 1 4 3
      7.26301963889842104594e-03 	 6 1 4 4
     -6.74123352216453265370e-04 	 6 1 5 1
     -1.93631288972925385151e-04 	 6 1 5 2
     -2.29421884129995097773e-04 	 6 1 5 3
     -6.77765313200291859806e-04 	 6 1 5 4
     -3.54156122250459974229e-03 	 6 1 5 5
      2.13688367592422415533e-03 	 6 1 6 1
      3.34162041748123177492e-04 	 6 1 6 2
      8.13388982130841130432e-04 	 6 1 6 3
      1.43023996414885171818e-03 	 6 1 6 4
      3.06981271959628956164e-03 	 6 1 6 5
      2.77906766400746714843e-03 	 6 1 6 6