&FCI NORB=9,NELEC=0,MS2=0
ORBSYM=1,1,1,1,
ISYM=1,
/
      6.61500000000000004663e-02 	 1 1 1 1
  -4.4416154699e-03 	 1 1 0 0
  0.0000000000e+00 	 0 0 0 0
