[Molden Format]
[Atoms] (AU)
C    1    6          -3.5627646139         2.2867634838         0.0002476130
C    2    6          -0.9340667562         2.3015392524         0.0003061945
C    3    6           0.3353038562         0.0000002302         0.0003269815
H    4    1          -4.5855732101         4.0624635348        -0.0003268637
H    5    1           0.1361871938         4.0428122729         0.0001758034
N    6    7           3.1331189740         0.0000002302         0.0001795829
O    7    8           4.2036582727        -2.0493227152        -0.0002361569
O    8    8           4.2036582727         2.0493212859        -0.0004232398
C    9    6          -3.5627665036        -2.2867630234         0.0001682445
H   10    1          -4.5855769896        -4.0624611847        -0.0004780418
C   11    6          -0.9340686460        -2.3015387920         0.0002381644
H   12    1           0.1361853041        -4.0428118125         0.0000718685
C   13    6          -4.8749507511         0.0000002302        -0.0003967836
H   14    1          -6.9252450158         0.0000002302        -0.0020748604
[GTO]
  1 0
 s    6  1.00
     4563.2400000000         0.0019666500
      682.0240000000         0.0152306000
      154.9730000000         0.0761269000
       44.4553000000         0.2608010000
       13.0290000000         0.6164620000
        1.8277300000         0.2210060000
 s    3  1.00
       20.9642000000         0.1146600000
        4.8033100000         0.9199990000
        1.4593300000        -0.0030306800
 p    3  1.00
       20.9642000000         0.0402487000
        4.8033100000         0.2375940000
        1.4593300000         0.8158540000
 s    1  1.00
        0.4834560000         1.0000000000
 p    1  1.00
        0.4834560000         1.0000000000
 s    1  1.00
        0.1455850000         1.0000000000
 p    1  1.00
        0.1455850000         1.0000000000
 d    1  1.00
        0.6260000000         1.0000000000

  2 0
 s    6  1.00
     4563.2400000000         0.0019666500
      682.0240000000         0.0152306000
      154.9730000000         0.0761269000
       44.4553000000         0.2608010000
       13.0290000000         0.6164620000
        1.8277300000         0.2210060000
 s    3  1.00
       20.9642000000         0.1146600000
        4.8033100000         0.9199990000
        1.4593300000        -0.0030306800
 p    3  1.00
       20.9642000000         0.0402487000
        4.8033100000         0.2375940000
        1.4593300000         0.8158540000
 s    1  1.00
        0.4834560000         1.0000000000
 p    1  1.00
        0.4834560000         1.0000000000
 s    1  1.00
        0.1455850000         1.0000000000
 p    1  1.00
        0.1455850000         1.0000000000
 d    1  1.00
        0.6260000000         1.0000000000

  3 0
 s    6  1.00
     4563.2400000000         0.0019666500
      682.0240000000         0.0152306000
      154.9730000000         0.0761269000
       44.4553000000         0.2608010000
       13.0290000000         0.6164620000
        1.8277300000         0.2210060000
 s    3  1.00
       20.9642000000         0.1146600000
        4.8033100000         0.9199990000
        1.4593300000        -0.0030306800
 p    3  1.00
       20.9642000000         0.0402487000
        4.8033100000         0.2375940000
        1.4593300000         0.8158540000
 s    1  1.00
        0.4834560000         1.0000000000
 p    1  1.00
        0.4834560000         1.0000000000
 s    1  1.00
        0.1455850000         1.0000000000
 p    1  1.00
        0.1455850000         1.0000000000
 d    1  1.00
        0.6260000000         1.0000000000

  4 0
 s    3  1.00
       33.8650000000         0.0254938000
        5.0947900000         0.1903730000
        1.1587900000         0.8521610000
 s    1  1.00
        0.3258400000         1.0000000000
 s    1  1.00
        0.1027410000         1.0000000000

  5 0
 s    3  1.00
       33.8650000000         0.0254938000
        5.0947900000         0.1903730000
        1.1587900000         0.8521610000
 s    1  1.00
        0.3258400000         1.0000000000
 s    1  1.00
        0.1027410000         1.0000000000

  6 0
 s    6  1.00
     6293.4800000000         0.0019697900
      949.0440000000         0.0149613000
      218.7760000000         0.0735006000
       63.6916000000         0.2489370000
       18.8282000000         0.6024600000
        2.7202300000         0.2562020000
 s    3  1.00
       30.6331000000         0.1119060000
        7.0261400000         0.9216660000
        2.1120500000        -0.0025691900
 p    3  1.00
       30.6331000000         0.0383119000
        7.0261400000         0.2374030000
        2.1120500000         0.8175920000
 s    1  1.00
        0.6840090000         1.0000000000
 p    1  1.00
        0.6840090000         1.0000000000
 s    1  1.00
        0.2008780000         1.0000000000
 p    1  1.00
        0.2008780000         1.0000000000
 d    1  1.00
        0.9130000000         1.0000000000

  7 0
 s    6  1.00
     8588.5000000000         0.0018951500
     1297.2300000000         0.0143859000
      299.2960000000         0.0707320000
       87.3771000000         0.2400010000
       25.6789000000         0.5947970000
        3.7400400000         0.2808020000
 s    3  1.00
       42.1175000000         0.1138890000
        9.6283700000         0.9208110000
        2.8533200000        -0.0032744700
 p    3  1.00
       42.1175000000         0.0365114000
        9.6283700000         0.2371530000
        2.8533200000         0.8197020000
 s    1  1.00
        0.9056610000         1.0000000000
 p    1  1.00
        0.9056610000         1.0000000000
 s    1  1.00
        0.2556110000         1.0000000000
 p    1  1.00
        0.2556110000         1.0000000000
 d    1  1.00
        1.2920000000         1.0000000000

  8 0
 s    6  1.00
     8588.5000000000         0.0018951500
     1297.2300000000         0.0143859000
      299.2960000000         0.0707320000
       87.3771000000         0.2400010000
       25.6789000000         0.5947970000
        3.7400400000         0.2808020000
 s    3  1.00
       42.1175000000         0.1138890000
        9.6283700000         0.9208110000
        2.8533200000        -0.0032744700
 p    3  1.00
       42.1175000000         0.0365114000
        9.6283700000         0.2371530000
        2.8533200000         0.8197020000
 s    1  1.00
        0.9056610000         1.0000000000
 p    1  1.00
        0.9056610000         1.0000000000
 s    1  1.00
        0.2556110000         1.0000000000
 p    1  1.00
        0.2556110000         1.0000000000
 d    1  1.00
        1.2920000000         1.0000000000

  9 0
 s    6  1.00
     4563.2400000000         0.0019666500
      682.0240000000         0.0152306000
      154.9730000000         0.0761269000
       44.4553000000         0.2608010000
       13.0290000000         0.6164620000
        1.8277300000         0.2210060000
 s    3  1.00
       20.9642000000         0.1146600000
        4.8033100000         0.9199990000
        1.4593300000        -0.0030306800
 p    3  1.00
       20.9642000000         0.0402487000
        4.8033100000         0.2375940000
        1.4593300000         0.8158540000
 s    1  1.00
        0.4834560000         1.0000000000
 p    1  1.00
        0.4834560000         1.0000000000
 s    1  1.00
        0.1455850000         1.0000000000
 p    1  1.00
        0.1455850000         1.0000000000
 d    1  1.00
        0.6260000000         1.0000000000

  10 0
 s    3  1.00
       33.8650000000         0.0254938000
        5.0947900000         0.1903730000
        1.1587900000         0.8521610000
 s    1  1.00
        0.3258400000         1.0000000000
 s    1  1.00
        0.1027410000         1.0000000000

  11 0
 s    6  1.00
     4563.2400000000         0.0019666500
      682.0240000000         0.0152306000
      154.9730000000         0.0761269000
       44.4553000000         0.2608010000
       13.0290000000         0.6164620000
        1.8277300000         0.2210060000
 s    3  1.00
       20.9642000000         0.1146600000
        4.8033100000         0.9199990000
        1.4593300000        -0.0030306800
 p    3  1.00
       20.9642000000         0.0402487000
        4.8033100000         0.2375940000
        1.4593300000         0.8158540000
 s    1  1.00
        0.4834560000         1.0000000000
 p    1  1.00
        0.4834560000         1.0000000000
 s    1  1.00
        0.1455850000         1.0000000000
 p    1  1.00
        0.1455850000         1.0000000000
 d    1  1.00
        0.6260000000         1.0000000000

  12 0
 s    3  1.00
       33.8650000000         0.0254938000
        5.0947900000         0.1903730000
        1.1587900000         0.8521610000
 s    1  1.00
        0.3258400000         1.0000000000
 s    1  1.00
        0.1027410000         1.0000000000

  13 0
 s    6  1.00
     4563.2400000000         0.0019666500
      682.0240000000         0.0152306000
      154.9730000000         0.0761269000
       44.4553000000         0.2608010000
       13.0290000000         0.6164620000
        1.8277300000         0.2210060000
 s    3  1.00
       20.9642000000         0.1146600000
        4.8033100000         0.9199990000
        1.4593300000        -0.0030306800
 p    3  1.00
       20.9642000000         0.0402487000
        4.8033100000         0.2375940000
        1.4593300000         0.8158540000
 s    1  1.00
        0.4834560000         1.0000000000
 p    1  1.00
        0.4834560000         1.0000000000
 s    1  1.00
        0.1455850000         1.0000000000
 p    1  1.00
        0.1455850000         1.0000000000
 d    1  1.00
        0.6260000000         1.0000000000

  14 0
 s    3  1.00
       33.8650000000         0.0254938000
        5.0947900000         0.1903730000
        1.1587900000         0.8521610000
 s    1  1.00
        0.3258400000         1.0000000000
 s    1  1.00
        0.1027410000         1.0000000000

[5D]
[9G]

[MO]
 Sym= A
 Ene=        -2.0596438505e+01
 Spin= Alpha
 Occup=         0.0000000000e+00
  1        -8.0728501880e-08
  2         8.1767434809e-07
  3        -1.0948541027e-06
  4        -1.9319365256e-06
  5        -1.7023385188e-09
  6        -2.1072113257e-06
  7         1.6170084370e-06
  8         8.7187442758e-06
  9         5.6770370511e-09
 10        -1.2872679933e-04
 11        -2.4551395651e-04
 12        -2.4563231337e-04
 13        -5.7373692672e-08
 14         4.5424978482e-06
 15         1.2683329656e-09
 16         7.2145110023e-09
 17        -5.1253759996e-06
 18         2.7631925058e-06
 19        -5.2980219749e-07
 20         4.7778006034e-07
 21         1.9775874757e-07
 22        -1.7956775257e-06
 23         4.5719689565e-09
 24        -3.7980028212e-07
 25        -7.0434775657e-06
 26         1.1381157208e-05
 27        -1.6418415450e-08
 28        -8.7718733379e-04
 29        -6.1408485847e-04
 30         5.1671277806e-04
 31         2.5375976516e-08
 32         1.6894054518e-06
 33        -8.6920740910e-10
 34         5.1026441122e-10
 35         9.7120529428e-06
 36         1.5600135165e-05
 37        -7.5237095164e-09
 38        -2.8738904541e-09
 39         5.6482637779e-08
 40        -5.1095200144e-06
 41         8.7512130788e-10
 42        -6.0415390303e-08
 43        -9.9758547857e-08
 44         1.9029235999e-05
 45        -3.6453775701e-09
 46         1.7699419283e-06
 47        -6.5688431550e-08
 48         1.6688140855e-03
 49         5.8319493797e-09
 50        -1.4685671411e-08
 51        -3.2964227202e-09
 52        -4.0969717231e-09
 53        -1.2309981537e-07
 54         2.5878077802e-05
 55        -1.1412512084e-06
 56         2.8726554564e-05
 57         2.7571794832e-05
 58         6.0296840611e-08
 59         4.4426040271e-05
 60        -8.9946372525e-05
 61        -1.2737213589e-07
 62         1.8976691728e-07
 63        -1.7133383591e-07
 64        -6.8515268231e-05
 65         2.9414788008e-09
 66        -9.6272833640e-07
 67        -7.7552329818e-07
 68        -4.3428797160e-04
 69         2.1177285838e-08
 70        -2.6316805099e-06
 71        -9.9295081611e-07
 72        -1.3143530584e-03
 73         4.5779298488e-08
 74         3.8244256093e-07
 75         1.3299487317e-08
 76         1.3238425728e-07
 77         5.8327675319e-07
 78        -2.7409979291e-04
 79         3.8860869212e-01
 80         3.3239006231e-01
 81        -7.0608537277e-04
 82         1.2762013766e-03
 83         3.2220502215e-07
 84         3.7543648970e-03
 85         2.7666982333e-04
 86        -5.2142813035e-04
 87        -1.2864921728e-07
 88        -1.0181038083e-03
 89         1.8274256926e-04
 90        -1.1629869531e-04
 91        -9.4032105231e-08
 92        -3.2986679805e-05
 93        -2.1481007086e-08
 94        -7.5859096169e-08
 95         9.6772509378e-05
 96         1.4409287047e-04
 97        -3.9132969878e-01
 98        -3.3471743191e-01
 99         7.1101461139e-04
100         1.2849739743e-03
101        -4.4641376775e-07
102        -3.7805094008e-03
103        -2.7836990642e-04
104        -5.2481315372e-04
105         1.7656617647e-07
106         1.0220848097e-03
107        -1.8274120164e-04
108        -1.1672064323e-04
109         1.1466957818e-07
110         3.3308481521e-05
111         6.1577732938e-09
112        -8.0236294082e-08
113        -9.7395601333e-05
114         1.4488118107e-04
115         8.1834649386e-08
116        -8.2434895070e-07
117         1.0961891678e-06
118        -1.9168458127e-06
119         1.2187932180e-09
120         2.2199869695e-06
121        -1.6266926263e-06
122         8.6566276539e-06
123        -3.8996701990e-09
124         1.2647681596e-04
125         2.4428921895e-04
126        -2.4537860868e-04
127         4.1149085885e-08
128        -4.4949694144e-06
129        -1.3731453910e-09
130         7.1843463189e-09
131         5.1002844791e-06
132         2.7460370797e-06
133         1.1477471263e-06
134        -2.8656913473e-05
135        -2.7583720665e-05
136         5.2724471258e-07
137        -4.6995442694e-07
138        -2.2916553303e-07
139        -1.8021608447e-06
140        -3.9522053686e-09
141         3.5789740983e-07
142         7.1309677594e-06
143         1.1329973544e-05
144         1.3340399480e-08
145         8.7775412151e-04
146         6.1202633627e-04
147         5.1564614977e-04
148         1.0718658001e-08
149        -1.6326303757e-06
150         2.2526200301e-09
151         2.9583180774e-09
152        -9.5869877629e-06
153         1.5477861420e-05
154        -5.6388950689e-08
155        -4.4271269304e-05
156         8.9536772639e-05
157        -1.0924719781e-10
158        -2.4905676313e-10
159        -1.4618893290e-09
160        -2.6028224349e-07
161         1.8217122462e-10
162        -1.1750949946e-08
163         9.0087204016e-09
164        -1.9737584537e-07
165        -5.7830701182e-10
166        -8.9509651576e-08
167         3.1080319013e-07
168        -2.4819650136e-04
169        -1.0415280517e-09
170        -7.1714171022e-10
171         1.5150708691e-10
172        -4.5983518813e-09
173        -1.4695144143e-09
174        -3.4542741045e-06
175        -9.6238240440e-09
176         1.0451134584e-07
177         3.9702738268e-08
 Sym= A
 Ene=        -2.0596386274e+01
 Spin= Alpha
 Occup=         0.0000000000e+00
  1        -1.5873186298e-07
  2         9.5897667507e-07
  3        -1.9543866668e-07
  4         2.1556177436e-06
  5         1.0906053675e-09
  6        -1.6163609936e-05
  7         1.3925929134e-06
  8        -8.8695229024e-06
  9        -4.0748689059e-09
 10         3.2188773363e-04
 11         1.7459791545e-04
 12         3.5527507347e-05
 13         1.8559353992e-08
 14        -6.7939925449e-06
 15         9.5761450630e-11
 16        -3.6109799886e-10
 17         3.5773069190e-06
 18        -2.4475516769e-06
 19         3.6468523575e-07
 20        -1.1202365960e-06
 21         4.4982529553e-06
 22        -9.3590652323e-07
 23        -1.0236611410e-09
 24         3.1273364038e-06
 25        -1.2550777017e-05
 26        -7.2944901513e-06
 27         7.1853204578e-09
 28        -8.4227706177e-05
 29         2.9281765283e-04
 30        -1.5109840794e-04
 31        -2.7989414363e-08
 32        -8.1363423488e-06
 33        -1.5198961319e-09
 34         3.4431636157e-09
 35        -1.7884093258e-05
 36        -1.7470807436e-05
 37         2.1565458713e-06
 38         8.2260948300e-07
 39        -1.6188761434e-05
 40        -1.7820159138e-08
 41        -1.5082080690e-09
 42         1.7323970833e-05
 43         2.8588725412e-05
 44         6.6344423312e-08
 45         8.9872533328e-09
 46        -5.0719351807e-04
 47         1.9147194435e-05
 48         5.8189116401e-06
 49         5.5470992336e-08
 50         4.2120948301e-06
 51         6.7652262491e-09
 52        -1.0067432557e-09
 53         3.5287525612e-05
 54         9.0282053307e-08
 55        -9.3398903672e-07
 56        -9.8809267616e-06
 57         1.7925862206e-06
 58        -5.6127765298e-07
 59        -2.2014317422e-05
 60         5.8413710302e-05
 61         3.6478749342e-05
 62        -5.4371835367e-05
 63         4.9070800442e-05
 64        -2.3872959893e-07
 65        -2.1789164166e-08
 66         2.7577186527e-04
 67         2.2220523195e-04
 68        -1.5150316138e-06
 69        -7.8720074395e-08
 70         7.5348662721e-04
 71         2.8441716496e-04
 72        -4.5830776834e-06
 73        -1.6805376958e-07
 74        -1.0960230058e-04
 75        -3.2693417413e-08
 76        -1.5735766185e-08
 77        -1.6718717421e-04
 78        -9.5615960311e-07
 79         3.9133240655e-01
 80         3.3471989859e-01
 81        -7.0877591633e-04
 82         1.2616637002e-03
 83         3.2815398667e-07
 84         3.7599218113e-03
 85         2.4457573794e-04
 86        -4.8693945625e-04
 87        -1.3014847405e-07
 88        -5.7358609239e-04
 89         3.5624334944e-07
 90        -6.0757499029e-05
 91         3.7178284499e-08
 92        -4.6158077547e-05
 93        -3.0955131372e-08
 94        -6.1046324673e-08
 95         8.9681770800e-05
 96         1.1352159068e-04
 97         3.8861141810e-01
 98         3.3239254595e-01
 99        -7.0383310688e-04
100        -1.2527290226e-03
101         4.4496251959e-07
102         3.7336365400e-03
103         2.4263961067e-04
104         4.8328933416e-04
105        -1.7315143477e-07
106        -5.6647268119e-04
107        -9.1797197565e-07
108         5.9945717020e-05
109         2.8072673941e-08
110        -4.5927353305e-05
111        -1.8349928110e-08
112         6.1037806648e-08
113         8.9003939799e-05
114        -1.1251316252e-04
115        -1.5816537993e-07
116         9.5325077937e-07
117        -1.8780369067e-07
118        -2.1690404515e-06
119         5.8361142107e-10
120        -1.6148532783e-05
121         1.3812993348e-06
122         8.9301247412e-06
123        -2.4106120941e-09
124         3.2277787155e-04
125         1.7630606042e-04
126        -3.7239655546e-05
127         1.3463550968e-08
128        -6.8255122780e-06
129         4.9768818898e-12
130         5.1985615076e-10
131         3.6129620667e-06
132         2.4667584023e-06
133        -9.2601306117e-07
134        -1.0080978991e-05
135         1.6002377303e-06
136         3.6837163053e-07
137        -1.1235384943e-06
138         4.4967753205e-06
139         9.2337971771e-07
140         2.7357644453e-10
141         3.1299307830e-06
142        -1.2501425442e-05
143         7.3735404240e-06
144         3.0294324356e-09
145        -7.8109197379e-05
146         2.9709322734e-04
147         1.5469827822e-04
148        -1.3186799950e-08
149        -8.1479036647e-06
150        -6.7366914406e-10
151        -2.2718037668e-09
152        -1.7951375069e-05
153         1.7579169014e-05
154        -5.6168293335e-07
155        -2.2323637353e-05
156         5.9039893365e-05
157         3.1333947537e-08
158         7.1249455433e-08
159         4.1889319064e-07
160        -9.1373219506e-10
161        -5.5157057991e-11
162         3.3704625771e-06
163        -2.5816350341e-06
164        -6.5486202284e-10
165        -1.4741654934e-09
166         2.5710298345e-05
167        -8.9099687774e-05
168        -8.6552329713e-07
169        -2.6383049796e-08
170         2.0631256879e-07
171         3.1304146379e-09
172        -2.1417857445e-10
173         4.2174765163e-07
174        -1.2037273209e-08
175         2.7591908270e-06
176        -2.9961390892e-05
177        -1.1377041892e-05
 Sym= A
 Ene=        -1.5852610040e+01
 Spin= Alpha
 Occup=         0.0000000000e+00
  1        -1.1748547271e-07
  2        -1.0490454524e-06
  3         1.0148536805e-06
  4        -2.1294464618e-07
  5        -9.0723998911e-10
  6         7.6789401330e-06
  7        -1.0717815932e-06
  8         4.8858109382e-06
  9         5.2244466686e-09
 10        -5.3327398978e-04
 11        -1.7537292366e-04
 12         8.1411407232e-05
 13        -1.8275719984e-08
 14        -1.2288679643e-06
 15         7.8102048220e-10
 16        -2.8117377470e-09
 17         1.4807379534e-06
 18        -7.6454777834e-06
 19         1.1655153284e-06
 20        -1.5731502525e-06
 21        -1.2762635967e-05
 22         1.0421566407e-05
 23         1.5459116151e-09
 24        -1.1708083185e-05
 25         4.4250403127e-05
 26        -5.1837602903e-05
 27        -7.3232190165e-09
 28         5.7826738967e-04
 29        -4.1058273917e-04
 30        -2.4863422714e-04
 31         3.4841463739e-08
 32        -1.3262382173e-05
 33         1.9694821480e-10
 34        -2.0170509633e-09
 35         1.3727393177e-06
 36        -2.2154763886e-05
 37         5.3419692197e-06
 38        -1.9606521664e-05
 39         6.0551223129e-05
 40        -2.5415047724e-11
 41        -3.7233534657e-09
 42         1.5162177548e-04
 43         1.9028965639e-04
 44        -1.2509899804e-10
 45        -5.5863062325e-09
 46         7.4090343665e-05
 47         9.1414858933e-04
 48        -1.7716238144e-09
 49        -4.0847465323e-08
 50        -4.5639064176e-06
 51        -9.9150753579e-09
 52         7.5248832808e-10
 53         1.2582079150e-04
 54         1.2603672864e-10
 55        -2.0956794631e-06
 56         5.2931990670e-06
 57        -1.4385578283e-05
 58        -8.6511781857e-06
 59         9.0018657349e-05
 60         5.0393825631e-05
 61         5.5789705657e-01
 62         4.6829370166e-01
 63         3.9006679080e-04
 64         2.7494331494e-09
 65        -1.8457781272e-07
 66         4.2162822026e-03
 67        -1.9448734175e-04
 68        -1.0101668052e-09
 69         1.9435941822e-08
 70        -8.1248616757e-04
 71         5.3011202945e-04
 72         1.9420880975e-09
 73        -3.2533272670e-08
 74        -2.1276647452e-04
 75        -8.0491351851e-08
 76        -1.8172895404e-08
 77        -5.4974284523e-05
 78         3.0124341064e-10
 79        -1.1707896815e-04
 80        -1.6118908470e-04
 81        -5.6936372117e-05
 82         9.1703579146e-05
 83         1.4259227910e-08
 84         2.5482121144e-04
 85        -1.3707799022e-04
 86         3.1780821719e-04
 87         5.0228228943e-08
 88        -1.5679533827e-05
 89        -5.7134127654e-05
 90        -5.9691762515e-05
 91        -1.6349582568e-08
 92        -4.8157575869e-05
 93         6.1043397697e-10
 94         3.7346067246e-08
 95        -9.9361348614e-05
 96        -1.2280059058e-04
 97        -1.1707946261e-04
 98        -1.6118982759e-04
 99        -5.6936591528e-05
100        -9.1703934924e-05
101         2.3022267144e-08
102         2.5482246147e-04
103        -1.3707857322e-04
104        -3.1780905076e-04
105         7.7049446451e-08
106        -1.5681468177e-05
107        -5.7133790816e-05
108         5.9692398611e-05
109        -1.7681499555e-08
110        -4.8157796109e-05
111        -1.1224775386e-08
112        -5.3697172652e-08
113        -9.9361538125e-05
114         1.2280115490e-04
115        -1.1748741368e-07
116        -1.0490328331e-06
117         1.0148674185e-06
118         2.1293746869e-07
119        -6.0427034774e-10
120         7.6788925881e-06
121        -1.0719108029e-06
122        -4.8857857238e-06
123         4.1927526222e-09
124        -5.3327393107e-04
125        -1.7537303851e-04
126        -8.1411613284e-05
127        -1.8857987414e-08
128        -1.2288413958e-06
129         1.2614678768e-09
130         2.7436009063e-09
131         1.4806799734e-06
132         7.6454816052e-06
133        -2.0956783222e-06
134         5.2930853720e-06
135        -1.4385675246e-05
136         1.1655106474e-06
137        -1.5731339606e-06
138        -1.2762616948e-05
139        -1.0421536209e-05
140         4.4160400711e-12
141        -1.1708184776e-05
142         4.4250176909e-05
143         5.1837319570e-05
144        -1.9034131037e-09
145         5.7826519148e-04
146        -4.1058295875e-04
147         2.4863354983e-04
148         3.4512185256e-08
149        -1.3262382346e-05
150         1.4543248515e-09
151         3.7191669820e-09
152         1.3728917190e-06
153         2.2154716286e-05
154        -8.6511780894e-06
155         9.0018629726e-05
156         5.0393788778e-05
157        -1.6025098530e-07
158         7.0875831441e-07
159         6.0826927156e-08
160        -2.0196195353e-12
161         1.4123636962e-09
162        -1.6606673677e-05
163         7.0025458966e-07
164         6.7386878063e-12
165        -4.3605086258e-09
166         2.2913043063e-04
167         1.8116490578e-04
168        -2.1206407769e-11
169         9.4806440612e-08
170        -5.7494150054e-06
171         1.3238789772e-09
172         3.2503650740e-10
173        -5.4360813627e-06
174         1.9342714948e-11
175        -4.0076917822e-06
176         3.3181254600e-05
177         3.0159593648e-05
 Sym= A
 Ene=        -1.1313586095e+01
 Spin= Alpha
 Occup=         0.0000000000e+00
  1         7.1241952715e-05
  2         6.2340381379e-05
  3         5.7588444796e-06
  4         8.1890030231e-06
  5         1.5074738764e-09
  6        -3.0850389725e-05
  7        -2.8103860334e-05
  8        -1.8808952339e-05
  9        -3.7306354603e-09
 10        -3.7344407528e-04
 11        -1.2265088136e-04
 12        -6.8055893887e-05
 13         2.8369847321e-08
 14        -3.9458407221e-06
 15         2.1931733264e-10
 16        -1.5774242041e-09
 17        -1.7980626202e-05
 18        -3.3857671944e-05
 19         9.4694317805e-03
 20         7.8060722832e-03
 21         1.1173124760e-04
 22        -2.1243080378e-04
 23         4.5706705306e-09
 24         2.2814620940e-04
 25        -2.6802461584e-05
 26         6.8273142699e-05
 27         1.8332385001e-09
 28         5.9974283474e-04
 29        -4.2272586052e-04
 30        -3.4672286752e-04
 31        -1.8762087990e-08
 32         8.1753277918e-05
 33         6.0463591741e-09
 34        -4.9611615117e-10
 35         2.2094787025e-05
 36        -9.9785637890e-06
 37         5.6318665211e-01
 38         4.6640955723e-01
 39         1.2888695208e-03
 40        -8.8966754836e-10
 41         8.7981647796e-08
 42         4.3059772875e-03
 43        -1.2565001624e-03
 44         2.7742819412e-09
 45        -8.9813441284e-08
 46        -4.5054390183e-04
 47         1.5061323500e-03
 48        -1.4449360442e-10
 49         7.3495510857e-08
 50        -3.0658321393e-04
 51         2.5786768937e-09
 52         1.4325646978e-08
 53        -4.4468795077e-04
 54        -8.3091933087e-10
 55        -1.0188170780e-05
 56         4.4529304401e-05
 57         2.6454701776e-05
 58         6.0660301268e-06
 59         4.0664648267e-05
 60         1.4402832475e-04
 61        -8.5467364536e-05
 62        -1.6381200712e-04
 63        -5.7529678882e-05
 64         7.8880848619e-11
 65         2.2323717144e-09
 66         5.0692334326e-04
 67        -6.4770606883e-04
 68        -3.4318552148e-10
 69         1.0393601675e-07
 70        -6.7440582777e-04
 71         3.9464208593e-04
 72        -5.5873354435e-10
 73        -1.0949680023e-07
 74        -5.6984162067e-05
 75        -2.4952670335e-08
 76         5.8801948198e-09
 77         2.8791021682e-04
 78        -1.2808008238e-10
 79         2.6678679267e-06
 80        -5.7121635125e-06
 81         2.0113352624e-05
 82        -1.7087813152e-05
 83        -8.4843690361e-09
 84         5.6925743542e-05
 85        -1.4581143496e-05
 86         6.1826563395e-05
 87         7.6356706762e-09
 88        -1.0580383584e-04
 89         1.0628207317e-05
 90        -2.9698843806e-05
 91         8.3270367765e-09
 92        -1.4596037541e-05
 93        -7.5833345490e-09
 94         1.2327459652e-08
 95        -1.7846644125e-05
 96        -3.1768403262e-05
 97         2.6678712087e-06
 98        -5.7121776034e-06
 99         2.0113386673e-05
100         1.7087805584e-05
101        -1.0453715863e-08
102         5.6925800141e-05
103        -1.4581297408e-05
104        -6.1826834103e-05
105         1.4987569454e-08
106        -1.0580282286e-04
107         1.0627839537e-05
108         2.9698494020e-05
109         5.8903458638e-09
110        -1.4596089487e-05
111        -1.1375909951e-08
112        -1.6960322639e-08
113        -1.7846643647e-05
114         3.1768555156e-05
115         7.1241665867e-05
116         6.2340115568e-05
117         5.7588158845e-06
118        -8.1889825312e-06
119         1.1777645124e-09
120        -3.0850177562e-05
121        -2.8103656585e-05
122         1.8808779679e-05
123        -3.3640441229e-09
124        -3.7344602926e-04
125        -1.2265178792e-04
126         6.8054720625e-05
127         2.9359336662e-08
128        -3.9458900965e-06
129         9.6652033231e-10
130         2.1634900989e-09
131        -1.7980466272e-05
132         3.3857641561e-05
133        -1.0188155688e-05
134         4.4529032078e-05
135         2.6454386600e-05
136         9.4694251969e-03
137         7.8060666900e-03
138         1.1173107942e-04
139         2.1243034856e-04
140         1.0882806040e-08
141         2.2814675670e-04
142        -2.6801426584e-05
143        -6.8271377723e-05
144         1.0923073036e-09
145         5.9974554921e-04
146        -4.2272670930e-04
147         3.4672398933e-04
148        -1.0388059295e-08
149         8.1752961798e-05