
Host: cn586.karolina.it4i.cz

Timers On : Wed Nov  5 16:10:24 2025
Timers Off: Wed Nov  5 16:10:24 2025

Wall Time:        0.64 seconds

                                                       Time (seconds)
Module                                       User      System        Wall        Calls

--------------------------------------------------------------------------------------

**************************************************************************************
