&FCI NORB=8,NELEC=0,MS2=0
ORBSYM=1,1,1,1,
ISYM=1,
/
      6.70931324762840397558e-02 	 1 1 1 1
      2.52962727228624173481e-03 	 1 2 1 1
      9.99636133965014876679e-03 	 1 3 1 1
     -7.87112287948198944155e-05 	 1 4 1 1
      1.25905737974227500964e-02 	 1 5 1 1
      3.49318231481884596337e-03 	 1 6 1 1
     -7.89303114602983991836e-04 	 1 7 1 1
      1.75806668585846287423e-02 	 1 8 1 1
      2.52962727228623826536e-03 	 2 1 1 1
     -3.95134121712838598528e-02 	 2 2 1 1
     -4.08670046605282520635e-03 	 2 3 1 1
     -6.68691367475965467611e-04 	 2 4 1 1
     -1.22147351141396031532e-02 	 2 5 1 1
     -2.92463664672076156803e-03 	 2 6 1 1
      7.24519410695117615367e-03 	 2 7 1 1
      1.67244852670555502888e-03 	 2 8 1 1
      9.99636133965016264458e-03 	 3 1 1 1
     -4.08670046605282347163e-03 	 3 2 1 1
      7.01742331188030254996e-02 	 3 3 1 1
     -1.14724886679808592976e-02 	 3 4 1 1
     -9.68454829387698119814e-03 	 3 5 1 1
     -1.37410741821635731114e-02 	 3 6 1 1
      4.20258646406392478295e-03 	 3 7 1 1
     -4.50929723882870312629e-03 	 3 8 1 1
     -7.87112287948085373977e-05 	 4 1 1 1
     -6.68691367475968178116e-04 	 4 2 1 1
     -1.14724886679808540935e-02 	 4 3 1 1
      3.75179687329337124835e-02 	 4 4 1 1
     -5.04095821024042392566e-03 	 4 5 1 1
     -1.60835943722994027805e-02 	 4 6 1 1
      4.12746950444540638275e-03 	 4 7 1 1
      2.46199287189197276934e-03 	 4 8 1 1
      1.25905737974227674436e-02 	 5 1 1 1
     -1.22147351141396083574e-02 	 5 2 1 1
     -9.68454829387697946341e-03 	 5 3 1 1
     -5.04095821024041872149e-03 	 5 4 1 1
      1.07832848420268120893e-01 	 5 5 1 1
     -6.87849376763147255659e-03 	 5 6 1 1
      1.21453835036579894935e-02 	 5 7 1 1
     -4.62330196072130959750e-03 	 5 8 1 1
      3.49318231481884379497e-03 	 6 1 1 1
     -2.92463664672075809858e-03 	 6 2 1 1
     -1.37410741821635731114e-02 	 6 3 1 1
     -1.60835943722994201277e-02 	 6 4 1 1
     -6.87849376763147255659e-03 	 6 5 1 1
     -7.26370151891232024299e-03 	 6 6 1 1
      1.27058455271229103246e-03 	 6 7 1 1
      3.37801017091215625629e-03 	 6 8 1 1
     -7.89303114602999495927e-04 	 7 1 1 1
      7.24519410695118135785e-03 	 7 2 1 1
      4.20258646406392478295e-03 	 7 3 1 1
      4.12746950444541592373e-03 	 7 4 1 1
      1.21453835036579946977e-02 	 7 5 1 1
      1.27058455271228496093e-03 	 7 6 1 1
     -4.16127528484975389711e-03 	 7 7 1 1
     -6.77752625462805244685e-04 	 7 8 1 1
      1.75806668585846530284e-02 	 8 1 1 1
      1.67244852670555849833e-03 	 8 2 1 1
     -4.50929723882870746310e-03 	 8 3 1 1
      2.46199287189198361137e-03 	 8 4 1 1
     -4.62330196072131566903e-03 	 8 5 1 1
      3.37801017091216189414e-03 	 8 6 1 1
     -6.77752625462801883659e-04 	 8 7 1 1
      3.24514872692398745335e-02 	 8 8 1 1
      0.00000000000000000000e+00 	 0 0 0 0
