[Molden Format]
[Atoms] (AU)
C    1    6          -3.4108199048         3.7000719679         1.3290675782
C    2    6          -0.7175456079         3.7683460154         1.3200354999
C    3    6           0.5595951804         1.5454058050         1.3422185980
C    4    6          -4.7626511167         1.4269130606         1.3913842640
H    5    1          -4.4313078228         5.4786881120         1.3074921781
H    6    1           0.2996426594         5.5442104537         1.3211882895
H    7    1          -6.8067071119         1.4453800879         1.4114951263
N    8    7           3.3408124935         1.5512762014         1.4586631817
O    9    8           4.3748181139        -0.5607450411         1.6626825685
O   10    8           4.4231797392         3.6346165415         1.3454586846
C   11    6          -3.4581378344        -0.8355749791         1.4291223593
H   12    1          -4.4536377905        -2.6266577787         1.4923939616
C   13    6          -0.6828358176        -0.9289382211         1.3495448583
H   14    1           0.2255165459        -2.3396795096         2.5518868851
BR  15   35          -0.2857505204        -2.3133314928        -2.2127294082
[GTO]
  1 0
 s    6  1.00
     4563.2400000000         0.0019666500
      682.0240000000         0.0152306000
      154.9730000000         0.0761269000
       44.4553000000         0.2608010000
       13.0290000000         0.6164620000
        1.8277300000         0.2210060000
 s    3  1.00
       20.9642000000         0.1146600000
        4.8033100000         0.9199990000
        1.4593300000        -0.0030306800
 p    3  1.00
       20.9642000000         0.0402487000
        4.8033100000         0.2375940000
        1.4593300000         0.8158540000
 s    1  1.00
        0.4834560000         1.0000000000
 p    1  1.00
        0.4834560000         1.0000000000
 s    1  1.00
        0.1455850000         1.0000000000
 p    1  1.00
        0.1455850000         1.0000000000
 d    1  1.00
        0.6260000000         1.0000000000

  2 0
 s    6  1.00
     4563.2400000000         0.0019666500
      682.0240000000         0.0152306000
      154.9730000000         0.0761269000
       44.4553000000         0.2608010000
       13.0290000000         0.6164620000
        1.8277300000         0.2210060000
 s    3  1.00
       20.9642000000         0.1146600000
        4.8033100000         0.9199990000
        1.4593300000        -0.0030306800
 p    3  1.00
       20.9642000000         0.0402487000
        4.8033100000         0.2375940000
        1.4593300000         0.8158540000
 s    1  1.00
        0.4834560000         1.0000000000
 p    1  1.00
        0.4834560000         1.0000000000
 s    1  1.00
        0.1455850000         1.0000000000
 p    1  1.00
        0.1455850000         1.0000000000
 d    1  1.00
        0.6260000000         1.0000000000

  3 0
 s    6  1.00
     4563.2400000000         0.0019666500
      682.0240000000         0.0152306000
      154.9730000000         0.0761269000
       44.4553000000         0.2608010000
       13.0290000000         0.6164620000
        1.8277300000         0.2210060000
 s    3  1.00
       20.9642000000         0.1146600000
        4.8033100000         0.9199990000
        1.4593300000        -0.0030306800
 p    3  1.00
       20.9642000000         0.0402487000
        4.8033100000         0.2375940000
        1.4593300000         0.8158540000
 s    1  1.00
        0.4834560000         1.0000000000
 p    1  1.00
        0.4834560000         1.0000000000
 s    1  1.00
        0.1455850000         1.0000000000
 p    1  1.00
        0.1455850000         1.0000000000
 d    1  1.00
        0.6260000000         1.0000000000

  4 0
 s    6  1.00
     4563.2400000000         0.0019666500
      682.0240000000         0.0152306000
      154.9730000000         0.0761269000
       44.4553000000         0.2608010000
       13.0290000000         0.6164620000
        1.8277300000         0.2210060000
 s    3  1.00
       20.9642000000         0.1146600000
        4.8033100000         0.9199990000
        1.4593300000        -0.0030306800
 p    3  1.00
       20.9642000000         0.0402487000
        4.8033100000         0.2375940000
        1.4593300000         0.8158540000
 s    1  1.00
        0.4834560000         1.0000000000
 p    1  1.00
        0.4834560000         1.0000000000
 s    1  1.00
        0.1455850000         1.0000000000
 p    1  1.00
        0.1455850000         1.0000000000
 d    1  1.00
        0.6260000000         1.0000000000

  5 0
 s    3  1.00
       33.8650000000         0.0254938000
        5.0947900000         0.1903730000
        1.1587900000         0.8521610000
 s    1  1.00
        0.3258400000         1.0000000000
 s    1  1.00
        0.1027410000         1.0000000000

  6 0
 s    3  1.00
       33.8650000000         0.0254938000
        5.0947900000         0.1903730000
        1.1587900000         0.8521610000
 s    1  1.00
        0.3258400000         1.0000000000
 s    1  1.00
        0.1027410000         1.0000000000

  7 0
 s    3  1.00
       33.8650000000         0.0254938000
        5.0947900000         0.1903730000
        1.1587900000         0.8521610000
 s    1  1.00
        0.3258400000         1.0000000000
 s    1  1.00
        0.1027410000         1.0000000000

  8 0
 s    6  1.00
     6293.4800000000         0.0019697900
      949.0440000000         0.0149613000
      218.7760000000         0.0735006000
       63.6916000000         0.2489370000
       18.8282000000         0.6024600000
        2.7202300000         0.2562020000
 s    3  1.00
       30.6331000000         0.1119060000
        7.0261400000         0.9216660000
        2.1120500000        -0.0025691900
 p    3  1.00
       30.6331000000         0.0383119000
        7.0261400000         0.2374030000
        2.1120500000         0.8175920000
 s    1  1.00
        0.6840090000         1.0000000000
 p    1  1.00
        0.6840090000         1.0000000000
 s    1  1.00
        0.2008780000         1.0000000000
 p    1  1.00
        0.2008780000         1.0000000000
 d    1  1.00
        0.9130000000         1.0000000000

  9 0
 s    6  1.00
     8588.5000000000         0.0018951500
     1297.2300000000         0.0143859000
      299.2960000000         0.0707320000
       87.3771000000         0.2400010000
       25.6789000000         0.5947970000
        3.7400400000         0.2808020000
 s    3  1.00
       42.1175000000         0.1138890000
        9.6283700000         0.9208110000
        2.8533200000        -0.0032744700
 p    3  1.00
       42.1175000000         0.0365114000
        9.6283700000         0.2371530000
        2.8533200000         0.8197020000
 s    1  1.00
        0.9056610000         1.0000000000
 p    1  1.00
        0.9056610000         1.0000000000
 s    1  1.00
        0.2556110000         1.0000000000
 p    1  1.00
        0.2556110000         1.0000000000
 d    1  1.00
        1.2920000000         1.0000000000

  10 0
 s    6  1.00
     8588.5000000000         0.0018951500
     1297.2300000000         0.0143859000
      299.2960000000         0.0707320000
       87.3771000000         0.2400010000
       25.6789000000         0.5947970000
        3.7400400000         0.2808020000
 s    3  1.00
       42.1175000000         0.1138890000
        9.6283700000         0.9208110000
        2.8533200000        -0.0032744700
 p    3  1.00
       42.1175000000         0.0365114000
        9.6283700000         0.2371530000
        2.8533200000         0.8197020000
 s    1  1.00
        0.9056610000         1.0000000000
 p    1  1.00
        0.9056610000         1.0000000000
 s    1  1.00
        0.2556110000         1.0000000000
 p    1  1.00
        0.2556110000         1.0000000000
 d    1  1.00
        1.2920000000         1.0000000000

  11 0
 s    6  1.00
     4563.2400000000         0.0019666500
      682.0240000000         0.0152306000
      154.9730000000         0.0761269000
       44.4553000000         0.2608010000
       13.0290000000         0.6164620000
        1.8277300000         0.2210060000
 s    3  1.00
       20.9642000000         0.1146600000
        4.8033100000         0.9199990000
        1.4593300000        -0.0030306800
 p    3  1.00
       20.9642000000         0.0402487000
        4.8033100000         0.2375940000
        1.4593300000         0.8158540000
 s    1  1.00
        0.4834560000         1.0000000000
 p    1  1.00
        0.4834560000         1.0000000000
 s    1  1.00
        0.1455850000         1.0000000000
 p    1  1.00
        0.1455850000         1.0000000000
 d    1  1.00
        0.6260000000         1.0000000000

  12 0
 s    3  1.00
       33.8650000000         0.0254938000
        5.0947900000         0.1903730000
        1.1587900000         0.8521610000
 s    1  1.00
        0.3258400000         1.0000000000
 s    1  1.00
        0.1027410000         1.0000000000

  13 0
 s    6  1.00
     4563.2400000000         0.0019666500
      682.0240000000         0.0152306000
      154.9730000000         0.0761269000
       44.4553000000         0.2608010000
       13.0290000000         0.6164620000
        1.8277300000         0.2210060000
 s    3  1.00
       20.9642000000         0.1146600000
        4.8033100000         0.9199990000
        1.4593300000        -0.0030306800
 p    3  1.00
       20.9642000000         0.0402487000
        4.8033100000         0.2375940000
        1.4593300000         0.8158540000
 s    1  1.00
        0.4834560000         1.0000000000
 p    1  1.00
        0.4834560000         1.0000000000
 s    1  1.00
        0.1455850000         1.0000000000
 p    1  1.00
        0.1455850000         1.0000000000
 d    1  1.00
        0.6260000000         1.0000000000

  14 0
 s    3  1.00
       33.8650000000         0.0254938000
        5.0947900000         0.1903730000
        1.1587900000         0.8521610000
 s    1  1.00
        0.3258400000         1.0000000000
 s    1  1.00
        0.1027410000         1.0000000000

  15 0
 s    6  1.00
   439700.0000000000         0.0008130000
    66030.0000000000         0.0062850000
    15140.0000000000         0.0319200000
     4317.0000000000         0.1288000000
     1414.0000000000         0.3946000000
      523.9000000000         0.5413000000
 s    3  1.00
      523.9000000000         0.1831000000
      207.7000000000         0.6176000000
       86.5400000000         0.2538000000
 s    1  1.00
       30.5200000000         1.0000000000
 s    1  1.00
       12.9800000000         1.0000000000
 s    1  1.00
        4.4120000000         1.0000000000
 s    1  1.00
        1.8620000000         1.0000000000
 s    1  1.00
        0.3932000000         1.0000000000
 s    1  1.00
        0.1400000000         1.0000000000
 p    3  1.00
     2957.0000000000         0.0222600000
      700.3000000000         0.1802000000
      224.6000000000         0.8624000000
 p    3  1.00
       82.5900000000         0.3440000000
       33.1900000000         0.5071000000
       14.2000000000         0.2590000000
 p    3  1.00
       14.2000000000         0.0796500000
        7.4380000000         0.3734000000
        3.5260000000         0.6049000000
 p    1  1.00
        1.5950000000         1.0000000000
 p    1  1.00
        0.8462000000         1.0000000000
 p    1  1.00
        0.3186000000         1.0000000000
 p    1  1.00
        0.1096000000         1.0000000000
 d    4  1.00
      134.8000000000         0.0183100000
       36.3900000000         0.1350000000
       12.1600000000         0.4261000000
        4.3410000000         0.6043000000
 d    1  1.00
        1.5350000000         1.0000000000
 d    1  1.00
        0.4510000000         1.0000000000

[5D]
[9G]

[MO]
 Sym= A
 Ene=        -4.9022529863e+02
 Spin= Alpha
 Occup=         0.0000000000e+00
  1        -6.0103519855e-09
  2         1.5365507079e-08
  3         5.7668473330e-09
  4        -5.8005344087e-09
  5        -1.7181464944e-08
  6        -1.0634234035e-07
  7        -9.0981712665e-09
  8        -1.0048583176e-08
  9         6.1493805947e-08
 10         3.1318853078e-06
 11         9.0398815090e-07
 12        -1.0725521658e-06
 13        -1.9222632891e-07
 14        -2.9645621226e-09
 15        -7.5020380205e-09
 16         3.5481636177e-09
 17         6.5298670529e-09
 18         2.1037707227e-08
 19        -3.2006512062e-09
 20         8.1955002111e-09
 21         8.4769747609e-10
 22        -5.1456610230e-08
 23        -5.0279326903e-09
 24         6.8650410087e-08
 25        -4.5814058885e-08
 26         2.2430387191e-07
 27         1.0775230526e-08
 28        -2.2012314496e-06
 29         1.7113599546e-06
 30         1.3053139227e-06
 31         2.8695795938e-07
 32         3.1655370851e-08
 33         1.0794762311e-08
 34        -2.8243680977e-08
 35         4.2671293940e-08
 36         2.8458831949e-08
 37        -1.9227008410e-08
 38         5.1712192189e-08
 39         1.8384797123e-08
 40         6.3372108134e-09
 41        -1.4256424796e-08
 42        -5.3450603763e-07
 43        -6.6627088797e-08
 44         8.3892130475e-08
 45         9.5164417899e-08
 46         5.8825604785e-06
 47        -2.6237436878e-06
 48        -2.6839115837e-06
 49        -8.3129968139e-07
 50        -9.9707594526e-08
 51         3.5036920464e-08
 52         9.0971937043e-08
 53        -8.3245585942e-08
 54         2.2948056481e-08
 55        -2.4360859188e-10
 56         1.2052137696e-09
 57         4.1774360887e-08
 58        -2.6886397772e-08
 59        -7.6621397720e-09
 60         1.0448440084e-07
 61        -1.5709597539e-07
 62         1.1714657408e-07
 63         2.1718958146e-08
 64        -3.4362185967e-06
 65        -1.8784087981e-06
 66         1.5778343036e-07
 67         2.4139626003e-07
 68         2.5578611015e-08
 69         1.0963513741e-08
 70        -1.7553044422e-08
 71         1.5620951365e-09
 72         2.2380923554e-08
 73        -9.8212270217e-09
 74         9.6157460617e-08
 75         2.2271905940e-07
 76         3.0988584407e-08
 77        -3.6369840600e-07
 78        -3.1893875527e-07
 79         2.0854390120e-08
 80        -2.2833854702e-07
 81        -2.7907356295e-07
 82        -3.1428709449e-09
 83         9.7512354630e-09
 84         6.9186243219e-09
 85        -8.2936130821e-09
 86         3.1919154659e-10
 87        -4.5872540092e-08
 88        -2.7905369284e-08
 89         4.1021131778e-09
 90        -4.7841775432e-09
 91         5.1530476380e-07
 92         2.2788788486e-07
 93         6.4556630653e-07
 94         1.7947144060e-07
 95         2.3698299762e-09
 96        -1.1690813956e-08
 97        -3.5777979833e-09
 98        -1.8177377942e-09
 99        -1.5683029951e-08
100        -5.7242996194e-10
101         3.3443447175e-09
102        -7.2156650782e-09
103        -1.3915013644e-08
104        -2.7644721613e-08
105        -7.6904080634e-09
106         1.7426436890e-08
107         4.6132759643e-08
108         8.9212996038e-08
109         1.3122285284e-07
110        -5.8989795901e-08
111        -4.5006900569e-08
112        -1.8554422256e-07
113         1.5961583972e-08
114         1.2366694150e-08
115        -5.1519109926e-09
116         8.7972399573e-10
117        -1.4118621664e-08
118         6.2836410873e-10
119        -1.8062410864e-09
120        -5.2542407028e-09
121         4.5178245593e-10
122         4.9384637952e-09
123         1.4939727144e-08
124         2.0718384803e-08
125        -3.1405681826e-10
126        -1.4183691687e-08
127        -3.4059567743e-07
128        -2.8346065382e-08
129         1.7299272886e-07
130        -2.4072616745e-08
131        -6.9969296351e-10
132        -1.7135022107e-09
133         7.0214662996e-09
134         1.2746814104e-08
135         2.3109791941e-09
136        -1.2512650593e-08
137         3.4846543403e-08
138        -5.3421896863e-08
139         2.0539143802e-08
140         4.3077712428e-09
141        -4.6791007187e-07
142         1.7729154309e-07
143        -4.0627225993e-08
144         8.6658979944e-09
145         5.6470358972e-06
146         1.9355759071e-06
147         2.1925080813e-06
148        -8.0429219200e-07
149        -7.3117393895e-08
150        -1.4019544104e-07
151         8.9509076218e-09
152         7.1229362982e-08
153        -5.6785536018e-08
154        -1.0713047063e-08
155         1.1775042168e-07
156         7.1428936154e-07
157         2.8832431763e-08
158        -8.5338498387e-08
159         4.6425439126e-09
160        -1.1506696074e-08
161        -1.1800436680e-07
162         8.8752368921e-07
163         2.5825567511e-08
164        -1.1884207358e-07
165         6.3720919610e-09
166        -7.8218854533e-06
167         1.4355563654e-06
168        -3.4416525151e-06
169         7.4567125557e-07
170         3.4614961171e-08
171         2.4593387103e-08
172        -1.1684343382e-07
173        -5.5295822192e-08
174        -6.8347109345e-08
175        -5.1177822340e-09
176        -3.2055610317e-07
177        -2.1630079673e-07
178         3.8999193192e-01
179         6.7446806932e-01
180         7.5833442034e-03
181        -4.3981820617e-04
182         2.4735343774e-05
183        -3.5088197894e-05
184         8.8754081757e-06
185        -3.3826174087e-06
186        -1.1402512741e-06
187         2.4175581166e-06
188         5.5291321085e-06
189        -4.0716839190e-07
190         8.6918105610e-07
191         2.0094482716e-06
192         2.3038121456e-07
193        -4.8560555889e-07
194        -1.0980321798e-06
195        -3.3691355106e-07
196         7.0501716679e-07
197         1.5485296702e-06
198         3.6963600823e-07
199        -7.7229806964e-07
200        -1.6268222580e-06
201        -3.3421485542e-07
202         7.2466315815e-07
203         1.3636533479e-06
204         2.5904130069e-07
205        -4.9812397125e-07
206        -1.1627287180e-06
207         8.1760412656e-07
208        -2.5599214710e-07
209         6.5714416926e-07
210        -1.1541437876e-07
211        -1.1399705574e-07
212        -4.4649097198e-07
213         1.4103555834e-07
214        -3.6966188406e-07
215         8.0449715762e-08
216         7.8578248373e-08
217        -3.8167205875e-11
218        -1.3421394899e-08
219         5.7734795008e-08
220        -5.3481540655e-08
221        -4.7995737655e-08
 Sym= A
 Ene=        -6.5358683018e+01
 Spin= Alpha
 Occup=         0.0000000000e+00
  1        -1.1945711555e-06
  2         3.8889468126e-06
  3         1.8160145707e-06
  4        -1.0520731287e-06
  5        -5.4160090117e-06
  6        -3.3278112118e-05
  7        -3.5599479220e-06
  8        -6.3287560439e-06
  9         1.6970302411e-05
 10         9.9655949956e-04
 11         2.9145483222e-04
 12        -3.4789806857e-04
 13        -6.0118527864e-05
 14        -1.3608075324e-06
 15        -2.0235071398e-06
 16         9.7166791032e-07
 17         1.7607323924e-06
 18         7.0342608168e-06
 19        -6.3760081998e-07
 20         2.1659722060e-06
 21         3.6219402111e-07
 22        -1.5203528105e-05
 23        -1.6127148351e-06
 24         2.3350990445e-05
 25        -1.4795677607e-05
 26         6.8223298626e-05
 27         7.4922093174e-07
 28        -6.7246174878e-04
 29         5.3695255964e-04
 30         4.0622597959e-04
 31         9.0922917119e-05
 32         1.1679092903e-05
 33         2.7515781988e-06
 34        -9.0092620158e-06
 35         1.2887874452e-05
 36         1.0439756333e-05
 37        -4.6651063592e-06
 38         1.4675998864e-05
 39         4.6198142523e-06
 40        -1.9203951713e-06
 41        -5.6533932113e-06
 42        -1.6860301129e-04
 43        -1.8521153115e-05
 44         3.8914452761e-05
 45         3.6243223547e-05
 46         1.8150779704e-03
 47        -7.7254026954e-04
 48        -8.5380105737e-04
 49        -2.5295649108e-04
 50        -3.2172143553e-05
 51         9.1245846712e-06
 52         2.5475134142e-05
 53        -2.4151575845e-05
 54         6.9386511404e-06
 55         9.3404405679e-08
 56         1.1035505923e-07
 57         1.2710421691e-05
 58        -8.2639028530e-06
 59        -2.2823552162e-06
 60         3.6921162941e-05
 61        -4.8776541541e-05
 62         3.6783485582e-05
 63         3.9953591659e-06
 64        -1.1071036387e-03
 65        -6.1188146072e-04
 66         5.8479120569e-05
 67         7.9574210559e-05
 68         1.0396552897e-05
 69         4.3266482189e-06
 70        -5.0352089384e-06
 71         2.1940785684e-06
 72         7.2426389408e-06
 73        -3.0398125024e-06
 74         3.2871354176e-05
 75         7.2334362880e-05
 76         9.8531059096e-06
 77        -1.1409894545e-04
 78        -1.0194443264e-04
 79         7.1510914062e-06
 80        -7.5579483040e-05
 81        -9.3152031590e-05
 82        -2.3609697992e-07
 83         1.3062697770e-06
 84         1.9717610583e-06
 85        -1.7381280499e-06
 86        -4.0151469727e-07
 87        -4.9753152214e-06
 88        -9.4172646328e-06
 89        -2.2850113494e-06
 90        -1.1300375664e-06
 91         1.2518185474e-04
 92         9.1690287574e-05
 93         2.1976518375e-04
 94         5.5182057720e-05
 95         2.0737967897e-06
 96        -4.0177267705e-06
 97        -1.3229458322e-06
 98        -1.5865428704e-06
 99        -4.4965747811e-06
100         4.9504194505e-08
101         1.3956795005e-07
102        -1.6505158007e-06
103        -4.0099022941e-06
104        -8.3590747045e-06
105         1.7705771021e-06
106         2.6431653990e-06
107         1.3235177065e-05
108         2.6620318727e-05
109         4.1311159405e-05
110        -1.5765153988e-05
111        -1.0991290171e-05
112        -5.7417232853e-05
113         5.5750681594e-06
114         3.5051839530e-06
115        -1.5749640883e-06
116         1.7846952275e-07
117        -4.5719156056e-06
118         1.5681978310e-07
119        -8.9138641021e-07
120        -1.5470056895e-06
121         3.3307819366e-07
122         1.3686824080e-06
123         7.3211402557e-06
124         6.2685327954e-06
125        -1.0637531553e-06
126        -3.9048169779e-06
127        -1.1932190429e-04
128        -8.3232374816e-06
129         5.8571624253e-05
130        -8.2807879009e-06
131        -3.2748381679e-07
132        -4.6883357872e-07
133         2.1047639065e-06
134         3.9786522741e-06
135         1.0995829853e-06
136        -3.6309528314e-06
137         1.1116316374e-05
138        -1.4052089804e-05
139         5.3830127661e-06
140         1.2362343638e-06
141        -1.5510250152e-04
142         4.6161270624e-05
143        -9.2367704083e-06
144         1.1565323954e-05
145         1.7742177756e-03
146         5.9694214058e-04
147         6.8990325077e-04
148        -2.5132656815e-04
149        -2.4316422539e-05
150        -4.1363848667e-05
151         4.1588184353e-06
152         2.2991119671e-05
153        -1.7782103849e-05
154        -1.6498296619e-07
155         2.7181682436e-05
156         2.2537612964e-04
157         6.6545537937e-06
158        -1.8372571191e-05
159         1.0314959016e-07
160         9.1541593189e-07
161        -2.6022313723e-05
162         2.3348004846e-04
163         6.8757999382e-06
164        -3.6444891968e-05
165         1.0432366892e-05
166        -2.3290387666e-03
167         4.3742475020e-04
168        -1.0603624970e-03
169         1.8037642107e-04
170         1.3482114923e-05
171         7.2329266143e-06
172        -3.3538945660e-05
173        -1.8849108902e-05
174        -1.9508687676e-05
175         2.5064613395e-06
176        -1.1362991165e-04
177        -5.4530354462e-05
178        -1.2895636138e-01
179        -3.7895054076e-01
180         6.3833341444e-01
181         4.8934137891e-01
182         4.7232519483e-02
183        -7.4339978310e-03
184         2.3146856261e-03
185        -1.1875865890e-03
186        -1.7985128249e-05
187         3.8376287210e-05
188         8.8530850877e-05
189        -1.4986074962e-04
190         3.1912779230e-04
191         7.3562971018e-04
192        -1.6435933935e-05
193         3.7277497616e-05
194         8.7664151601e-05
195        -8.0933392542e-06
196         6.7724159555e-06
197         1.2999217306e-06
198         3.3818705769e-05
199        -5.6754506037e-05
200        -9.6920438709e-05
201        -6.8640081168e-05
202         1.3992857272e-04
203         2.4266197755e-04
204         7.6209782115e-05
205        -1.4531876515e-04
206        -3.4617612428e-04
207         4.9567953233e-05
208        -1.5923923234e-05
209         4.0599360585e-05
210        -8.1477460304e-06
211        -8.2931374705e-06
212        -4.8850309817e-06
213         2.2418333120e-06
214        -6.9055081469e-06
215         6.5969692790e-06
216         6.6812949924e-06
217        -2.1592903838e-06
218        -3.8671047814e-06
219         1.3656619715e-05
220        -1.5703443628e-05
221        -1.5032538149e-05
 Sym= A
 Ene=        -5.8719164196e+01
 Spin= Alpha
 Occup=         0.0000000000e+00
  1         8.6004634025e-07
  2        -2.7603681860e-06
  3         4.5873693004e-07
  4         5.1052312917e-06
  5         2.4322193935e-06
  6         4.6251015750e-06
  7        -4.8790136672e-06
  8        -2.3773635768e-05
  9        -9.1877215282e-06
 10         3.7417031543e-05
 11         3.8304953386e-05
 12        -5.4384995322e-05
 13         8.5460925504e-06
 14        -3.3194978792e-06
 15         3.0749854771e-06
 16        -2.6179794318e-06
 17        -2.9599375062e-06
 18         2.4476281145e-06
 19         5.2864176293e-07
 20        -1.7996401649e-06
 21         4.5983071747e-07
 22         3.7778767509e-06
 23         2.5171448925e-06
 24         1.7827951167e-05
 25        -1.4969522107e-06
 26        -1.7341874840e-05
 27        -1.0969819177e-05
 28         1.3660744051e-04
 29        -3.1839613731e-05
 30        -3.9468255524e-05
 31         6.2525428287e-06
 32         9.4532517013e-06
 33        -4.7307332182e-06
 34        -3.0889021032e-06
 35        -2.8535020488e-06
 36         8.4763371094e-06
 37        -9.7256553644e-07
 38         3.6891128846e-06
 39        -2.9471422215e-06
 40        -1.7450620321e-05
 41        -9.8971997811e-06
 42        -1.2418885972e-06
 43         8.8823271671e-06
 44         7.8615944237e-05
 45         3.9309030419e-05
 46        -3.2660106811e-04
 47         3.8706978398e-04
 48        -4.7613315503e-06
 49         7.0524567563e-05
 50        -6.0387557925e-06
 51        -1.1911592584e-05
 52        -1.7611267438e-05
 53         1.0923312026e-05
 54         1.0731489319e-06
 55         1.1372751023e-06
 56        -3.6238015798e-06
 57        -7.4863240463e-07
 58         9.2105045720e-07
 59         2.5300849074e-06
 60         3.7459041761e-05
 61         8.0094287038e-06
 62        -1.1650660115e-05
 63        -1.2557622302e-05
 64        -1.5884044595e-04
 65        -1.1751986370e-04
 66         7.0597617604e-05
 67         2.5415903948e-05
 68         1.1596400541e-05
 69         7.7612894443e-06
 70         3.1471020564e-06
 71         8.3462788070e-06
 72        -2.8765379217e-06
 73        -4.4230640531e-08
 74         1.7348420550e-05
 75         1.0183768592e-05
 76         7.6325459222e-07
 77         4.8903719343e-06
 78        -6.3118390438e-06
 79         3.5512157269e-06
 80        -1.9737510608e-05
 81        -3.2443642588e-05
 82         1.8855203110e-06
 83        -7.8716152639e-06
 84        -1.4345995464e-07
 85         3.8112965225e-06
 86        -2.3394115302e-06
 87         6.1751649937e-05
 88        -4.5979504569e-06
 89        -1.8526713259e-05
 90         5.4067251409e-06
 91        -2.5144904814e-04
 92         1.2407445498e-04
 93         8.0674145903e-05
 94        -4.6474003056e-06
 95         7.4327952481e-06
 96        -3.2634123371e-06
 97        -2.5367971383e-06
 98        -4.6579516846e-06
 99         1.0022818306e-06
100         6.4588396929e-07
101        -4.4332525206e-06
102         3.4815870432e-06
103         1.5347644842e-06
104         9.2693963615e-08
105         2.9065364224e-05
106        -1.5706098968e-05
107        -3.8418884798e-06
108        -2.1817936369e-06
109        -2.0821184735e-05
110         2.6428432993e-05
111         1.9674185139e-05
112         1.0890530408e-05
113         4.0589405230e-06
114        -3.2825295268e-06
115        -7.3989769278e-07
116        -1.3404360170e-06
117        -2.3531700837e-06
118         3.4776323585e-07
119        -2.4210864841e-06
120         2.0262039603e-07
121         1.4093051765e-06
122        -8.7034095231e-07
123         1.4748057999e-05
124        -1.2485042638e-06
125        -6.1133386647e-06
126         2.8556646807e-06
127        -6.0856712911e-05
128         1.0246100343e-06
129         1.9773698020e-05
130        -5.3296289433e-06
131        -7.1993668194e-07
132         2.3030554406e-07
133        -3.0041146954e-07
134         2.3387022579e-07
135         2.7694299097e-06
136        -3.0096475444e-06
137         9.7858044050e-06
138         5.1439515763e-06
139        -1.7175667537e-06
140        -5.5412403984e-06
141        -5.3710093711e-05
142        -4.4231084453e-05
143         1.5447899937e-05
144         4.0718437872e-05
145        -8.6277230371e-05
146        -1.2898686477e-04
147        -1.0413142182e-05
148         2.5505198976e-05
149        -3.6283074250e-06
150         8.4466767590e-06
151         1.1333600929e-05
152         1.1890757660e-05
153         2.7833715064e-06
154         2.0461353270e-05
155        -7.4528652100e-05
156        -4.5129452069e-06
157        -2.0477602390e-07
158         3.2119499069e-06
159        -2.1167757290e-06
160         1.0263774923e-05
161         1.8703498606e-05
162        -2.0359568593e-04
163         2.4435335904e-05
164        -5.7708031141e-05
165        -8.0065942538e-05
166         8.7021434101e-04
167        -1.1907128115e-04
168         2.2094418592e-04
169        -3.1014602550e-04
170         6.6434179536e-05
171        -1.5902946729e-05
172         5.1765258310e-05
173        -1.9649346760e-05
174         5.2731645335e-06
175         1.9540515782e-05
176        -8.2740813065e-05
177         6.7969277259e-05
178         1.1989161992e-04
179         3.5559789199e-04
180        -6.5690423962e-04