&FCI NORB=8,NELEC=0,MS2=0
ORBSYM=1,1,1,1,
ISYM=1,
/
      4.73252223062695875910e-01 	 1 1 1 1
     -3.60826250346211454753e-03 	 1 1 2 1
      2.13588238076734354687e-01 	 1 1 2 2
     -5.07669401418267343673e-02 	 1 1 3 1
     -2.16332004068026627353e-02 	 1 1 3 2
      3.27958454593180182002e-01 	 1 1 3 3
      7.63383211125825446308e-03 	 1 1 4 1
      4.53227324744755188934e-03 	 1 1 4 2
     -5.63667221218230049887e-04 	 1 1 4 3
      1.11455979822707093585e-01 	 1 1 4 4
     -1.75827375026692267479e-02 	 1 1 5 1
     -2.46762210066888490467e-02 	 1 1 5 2
      3.71097796821203904094e-03 	 1 1 5 3
      5.80694754920878068727e-04 	 1 1 5 4
      2.63834816185721632298e-01 	 1 1 5 5
     -3.71378423211692803088e-04 	 1 1 6 1
      2.22949152164404187579e-04 	 1 1 6 2
      3.70536548945641589642e-03 	 1 1 6 3
      3.68815144381526554412e-03 	 1 1 6 4
     -8.43089221066253488579e-03 	 1 1 6 5
      1.24858713915138960782e-01 	 1 1 6 6
      5.97846491827278697651e-02 	 1 1 7 1
      1.61664801010660968972e-02 	 1 1 7 2
      5.72036780326813220493e-03 	 1 1 7 3
      1.47449940661594381536e-03 	 1 1 7 4
      3.85601453242674988009e-03 	 1 1 7 5
     -6.42641681483936168251e-03 	 1 1 7 6
      3.55140864152135582454e-01 	 1 1 7 7
     -1.11254523066688839478e-02 	 1 1 8 1
      5.37559097090686138776e-03 	 1 1 8 2
     -9.71127189253702025572e-04 	 1 1 8 3
     -8.49479979843477568668e-03 	 1 1 8 4
     -1.16603710246144676860e-02 	 1 1 8 5
     -4.60019306991454011990e-03 	 1 1 8 6
     -3.01799676801928077122e-03 	 1 1 8 7
      1.77791998929703959353e-01 	 1 1 8 8
     -3.60826250346211064440e-03 	 2 1 1 1
      1.84775220583522237910e-03 	 2 1 2 1
      9.93757162105283683995e-04 	 2 1 2 2
     -2.70200257227195715041e-04 	 2 1 3 1
      1.85575002846421945740e-03 	 2 1 3 2
      3.38655640470454741969e-03 	 2 1 3 3
     -4.44360618192306136912e-04 	 2 1 4 1
     -9.90154037333143338326e-04 	 2 1 4 2
     -3.38516632463606520834e-04 	 2 1 4 3
     -1.81665744384004409530e-03 	 2 1 4 4
      4.49555205437996883381e-04 	 2 1 5 1
      2.63225262648126602516e-03 	 2 1 5 2
      7.07997180430282291828e-04 	 2 1 5 3
      7.64532167176586787425e-05 	 2 1 5 4
      4.46401643786990126594e-03 	 2 1 5 5
     -4.39174704295794014666e-04 	 2 1 6 1
     -2.51699056014456504574e-04 	 2 1 6 2
     -2.58809636739995671973e-04 	 2 1 6 3
      1.56598088714573016079e-03 	 2 1 6 4
      3.06603991616758206991e-05 	 2 1 6 5
      1.40757020543088012116e-03 	 2 1 6 6
     -3.54598105098553688895e-04 	 2 1 7 1
     -1.84566170649827694140e-03 	 2 1 7 2
      9.08650524109295889413e-04 	 2 1 7 3
      2.18854141646919740953e-04 	 2 1 7 4
     -1.43671189642729287689e-03 	 2 1 7 5
      5.01903321366655667118e-04 	 2 1 7 6
     -2.09136893319662167320e-03 	 2 1 7 7
      8.47874773734209495266e-04 	 2 1 8 1
     -1.80012818339441211146e-05 	 2 1 8 2
      3.88416222662981954275e-04 	 2 1 8 3
      4.56282806394548324114e-04 	 2 1 8 4
      1.52228851626886848084e-03 	 2 1 8 5
     -4.42440040623673044341e-04 	 2 1 8 6
     -6.58044891791192043586e-05 	 2 1 8 7
     -3.77529041211163447073e-03 	 2 1 8 8
      2.13588238076734243664e-01 	 2 2 1 1
      9.93757162105288454484e-04 	 2 2 2 1
      3.37442226340567752452e-01 	 2 2 2 2
      1.03088026742000331976e-03 	 2 2 3 1
     -1.43029975853122756635e-02 	 2 2 3 2
      1.87549832294612556227e-01 	 2 2 3 3
     -1.10374632568492115660e-03 	 2 2 4 1
      9.61522418687402180559e-03 	 2 2 4 2
     -3.20088866739031340999e-03 	 2 2 4 3
      1.58488585278219878960e-01 	 2 2 4 4
     -2.90874871715113671525e-03 	 2 2 5 1
     -1.48272850329832263372e-02 	 2 2 5 2
      5.40181406191900335273e-03 	 2 2 5 3
     -1.26365053622025445661e-03 	 2 2 5 4
      2.58265290227403798706e-01 	 2 2 5 5
     -1.35525934008645632632e-03 	 2 2 6 1
      1.44736524045700276977e-03 	 2 2 6 2
     -2.75851231900550871411e-04 	 2 2 6 3
      1.13226670101575690314e-02 	 2 2 6 4
     -3.10204532009622285446e-03 	 2 2 6 5
      1.66568421885681522410e-01 	 2 2 6 6
      8.37752477302073500498e-04 	 2 2 7 1
      6.26896912871922635385e-03 	 2 2 7 2
      2.37253301319492564125e-04 	 2 2 7 3
      2.08667909458328448488e-03 	 2 2 7 4
     -2.38947170431459687823e-03 	 2 2 7 5
     -8.73240359927183063676e-05 	 2 2 7 6
      2.07057779341696723829e-01 	 2 2 7 7
     -1.27914431623025646144e-03 	 2 2 8 1
      1.16931045357941288537e-02 	 2 2 8 2
      2.99945001237747347136e-04 	 2 2 8 3
     -5.16053262500127708778e-03 	 2 2 8 4
     -1.24780670090129473110e-02 	 2 2 8 5
      8.05315900619264736157e-04 	 2 2 8 6
      9.42513243174666025259e-05 	 2 2 8 7
      2.26095752757253465326e-01 	 2 2 8 8
     -5.07669401418266441617e-02 	 3 1 1 1
     -2.70200257227201461312e-04 	 3 1 2 1
      1.03088026741999551350e-03 	 3 1 2 2
      2.20643204642731426135e-02 	 3 1 3 1
      5.52033397885630210122e-03 	 3 1 3 2
     -5.81546493039825918014e-02 	 3 1 3 3
     -1.63588731016214286237e-03 	 3 1 4 1
      6.60174572306630280498e-04 	 3 1 4 2
      2.39278875325726664205e-05 	 3 1 4 3
      3.99952589948831815914e-02 	 3 1 4 4
      3.87987090529380660581e-03 	 3 1 5 1
      4.91877012006148792156e-03 	 3 1 5 2
     -4.27542175579617136829e-04 	 3 1 5 3
     -1.03820301401573293100e-03 	 3 1 5 4
     -3.37879880350035926087e-03 	 3 1 5 5
     -7.63654206956996899590e-05 	 3 1 6 1
     -5.25175445528931576777e-04 	 3 1 6 2
     -1.95188831476694876418e-03 	 3 1 6 3
     -2.97517568975458552086e-03 	 3 1 6 4
      5.00619475133849039031e-04 	 3 1 6 5
      3.67371781384517037683e-02 	 3 1 6 6
     -1.79338607168836872141e-02 	 3 1 7 1
     -3.36179359881922388067e-03 	 3 1 7 2
     -5.44732280255008031317e-03 	 3 1 7 3
     -4.46672905162068137417e-04 	 3 1 7 4
     -6.73264466318337700609e-04 	 3 1 7 5
      1.87278932100684038752e-03 	 3 1 7 6
     -4.67552378347205685460e-02 	 3 1 7 7
      2.86956368935853845664e-03 	 3 1 8 1
      5.22013973845238165097e-04 	 3 1 8 2
      1.53389138805360694326e-03 	 3 1 8 3
     -1.39403922917614151757e-03 	 3 1 8 4
      2.27950033382352075170e-03 	 3 1 8 5
      1.34482365671507748256e-03 	 3 1 8 6
      3.34585379878813609159e-04 	 3 1 8 7
      2.62014807736331914456e-02 	 3 1 8 8
     -2.16332004068026696741e-02 	 3 2 1 1
      1.85575002846420839854e-03 	 3 2 2 1
     -1.43029975853122843371e-02 	 3 2 2 2
      5.52033397885630643803e-03 	 3 2 3 1
      1.06156068907217147890e-02 	 3 2 3 2
     -2.88493548480400589795e-02 	 3 2 3 3
     -8.95698554514156707745e-04 	 3 2 4 1
     -3.36499998919416757823e-03 	 3 2 4 2
     -1.15491043437977768463e-03 	 3 2 4 3
      1.19723099654770008538e-02 	 3 2 4 4
      3.36190608494102470896e-03 	 3 2 5 1
      1.20868651560781213694e-02 	 3 2 5 2
      1.99038843636499844167e-03 	 3 2 5 3
      1.82001752208950178490e-04 	 3 2 5 4
     -6.23940996403193979397e-03 	 3 2 5 5
     -3.84758090377310308944e-04 	 3 2 6 1
     -8.93037486032352231281e-04 	 3 2 6 2
     -1.38219577493215155933e-03 	 3 2 6 3
      3.40144461673810025518e-03 	 3 2 6 4
      1.72141809620627531802e-03 	 3 2 6 5
      2.04951294278954559980e-02 	 3 2 6 6
     -6.39520916579635299859e-03 	 3 2 7 1
     -5.63533775946429421611e-03 	 3 2 7 2
      5.84604817720521790364e-04 	 3 2 7 3
      3.00952305236246490071e-04 	 3 2 7 4
     -3.13350839357117230688e-03 	 3 2 7 5
      1.60435222580369548154e-03 	 3 2 7 6
     -2.39439221354386250207e-02 	 3 2 7 7
      2.52264528353230484820e-03 	 3 2 8 1
     -1.18698246415366043954e-03 	 3 2 8 2
      1.60610430418700817282e-03 	 3 2 8 3
      1.18683130951926173700e-03 	 3 2 8 4
      5.86985281503167415085e-03 	 3 2 8 5
      1.79362139628915656393e-04 	 3 2 8 6
      3.19507419745924503129e-04 	 3 2 8 7
     -7.03871314024416203092e-03 	 3 2 8 8
      3.27958454593180126491e-01 	 3 3 1 1
      3.38655640470455782803e-03 	 3 3 2 1
      1.87549832294612472960e-01 	 3 3 2 2
     -5.81546493039827028237e-02 	 3 3 3 1
     -2.88493548480400659184e-02 	 3 3 3 2
      5.52084543348560607967e-01 	 3 3 3 3
      2.68230602658100928185e-03 	 3 3 4 1
     -1.60993652443123299450e-04 	 3 3 4 2
      3.64514343108499495189e-03 	 3 3 4 3
      7.80596787132415287358e-02 	 3 3 4 4
     -7.68406258667582529182e-03 	 3 3 5 1
     -1.26957794467613144934e-02 	 3 3 5 2
     -1.51065439130789206865e-03 	 3 3 5 3
      1.49973658821133792179e-03 	 3 3 5 4
      2.17628046172733874419e-01 	 3 3 5 5
     -3.63928830877148761641e-03 	 3 3 6 1
      3.14701183223090150305e-04 	 3 3 6 2
      9.99850264421380495461e-03 	 3 3 6 3
      1.02033837903718130335e-02 	 3 3 6 4
     -6.05945862026300262337e-03 	 3 3 6 5
      1.03917400332005180341e-01 	 3 3 6 6
      3.93991391907926730154e-02 	 3 3 7 1
      8.84242887993470262631e-03 	 3 3 7 2
      2.01033150420594289298e-02 	 3 3 7 3
      1.81522678646131325336e-03 	 3 3 7 4
      1.13139654830760744142e-05 	 3 3 7 5
     -4.02351694451106786654e-03 	 3 3 7 6
      2.92427290006215090390e-01 	 3 3 7 7
     -2.57085137423945179341e-03 	 3 3 8 1
      3.76642613069178488691e-03 	 3 3 8 2
     -5.53145824798861440036e-03 	 3 3 8 3
     -4.12692829918028490643e-03 	 3 3 8 4
     -4.85105699981963536110e-03 	 3 3 8 5
     -6.25766881966361224188e-03 	 3 3 8 6
     -2.66221716197431040873e-03 	 3 3 8 7
      1.37376123567538283021e-01 	 3 3 8 8
      7.63383211125824839155e-03 	 4 1 1 1
     -4.44360618192304564818e-04 	 4 1 2 1
     -1.10374632568491096510e-03 	 4 1 2 2
     -1.63588731016214719918e-03 	 4 1 3 1
     -8.95698554514156816166e-04 	 4 1 3 2
      2.68230602658101491970e-03 	 4 1 3 3
      2.11463201534245557461e-03 	 4 1 4 1
      3.84897367348711384218e-04 	 4 1 4 2
      9.77999424313057358696e-04 	 4 1 4 3
      3.54422036177384465819e-03 	 4 1 4 4
     -9.00869409889050432559e-04 	 4 1 5 1
     -1.15503972926362372987e-03 	 4 1 5 2
     -3.62800108059617442986e-04 	 4 1 5 3
      1.40992276975107313402e-04 	 4 1 5 4
     -1.05248701185158845782e-03 	 4 1 5 5
      3.33590311407955231703e-04 	 4 1 6 1
      2.15492817716965553900e-04 	 4 1 6 2
      3.21438384323780436229e-04 	 4 1 6 3
     -4.32698260503631059945e-04 	 4 1 6 4
      2.43695773145759209902e-04 	 4 1 6 5
     -4.38795048506641742481e-03 	 4 1 6 6
      1.96747193362831196417e-03 	 4 1 7 1
      7.44653689334629810548e-04 	 4 1 7 2
     -6.44834753433469042450e-05 	 4 1 7 3
     -8.19505085436397534733e-04 	 4 1 7 4
      5.95866332622827952689e-04 	 4 1 7 5
     -5.34017163721021677694e-04 	 4 1 7 6
      5.15500477050930949047e-03 	 4 1 7 7
     -1.20717721697075888385e-03 	 4 1 8 1
     -6.19738801438357946906e-05 	 4 1 8 2
     -4.74248954043253987973e-04 	 4 1 8 3
     -5.16406976589857120812e-04 	 4 1 8 4
     -1.05642689477508763991e-03 	 4 1 8 5
      5.07037419287516711447e-04 	 4 1 8 6
      1.61986705438641126822e-04 	 4 1 8 7
     -3.57807930683300254217e-04 	 4 1 8 8
      4.53227324744756836922e-03 	 4 2 1 1
     -9.90154037333152879305e-04 	 4 2 2 1
      9.61522418687401833615e-03 	 4 2 2 2
      6.60174572306625510008e-04 	 4 2 3 1
     -3.36499998919415370044e-03 	 4 2 3 2
     -1.60993652443132840429e-04 	 4 2 3 3
      3.84897367348713498412e-04 	 4 2 4 1
      3.37896197577052231215e-03 	 4 2 4 2
      8.20669681395077080244e-04 	 4 2 4 3
      9.03635016870841210890e-03 	 4 2 4 4
     -1.33342866474944104008e-03 	 4 2 5 1
     -4.13650953312191642375e-03 	 4 2 5 2
     -6.57019791749337430352e-04 	 4 2 5 3
      3.49464795745656393346e-04 	 4 2 5 4
      2.89310730578526322659e-03 	 4 2 5 5
      4.93013584336664928941e-04 	 4 2 6 1
      1.35852761850636352854e-03 	 4 2 6 2
      7.22724743974871726947e-04 	 4 2 6 3
     -2.03069745529802381939e-03 	 4 2 6 4
     -3.26199703068973372727e-06 	 4 2 6 5
     -1.68282079893838920626e-03 	 4 2 6 6
      4.41411353416128453969e-05 	 4 2 7 1
      2.20139669311962549170e-03 	 4 2 7 2
     -1.14499913766115055114e-03 	 4 2 7 3
     -3.87234176773085399768e-04 	 4 2 7 4
      1.51630798062675378572e-03 	 4 2 7 5
     -8.10199963400402476364e-04 	 4 2 7 6
      4.20911274928978049181e-03 	 4 2 7 7
     -1.15505348529036200138e-03 	 4 2 8 1
      1.24870944313615599847e-03 	 4 2 8 2
     -4.61654854235534449491e-04 	 4 2 8 3
     -1.61908566668359063696e-03 	 4 2 8 4
     -2.60535920013233888645e-03 	 4 2 8 5
      7.61875164991075238055e-04 	 4 2 8 6
      1.13332404084671253439e-05 	 4 2 8 7
      1.23564619202444197360e-02 	 4 2 8 8
     -5.63667221218219424705e-04 	 4 3 1 1
     -3.38516632463608635028e-04 	 4 3 2 1
     -3.20088866739031601208e-03 	 4 3 2 2
      2.39278875325737777277e-05 	 4 3 3 1
     -1.15491043437977443202e-03 	 4 3 3 2
      3.64514343108499321716e-03 	 4 3 3 3
      9.77999424313058659738e-04 	 4 3 4 1
      8.20669681395073719217e-04 	 4 3 4 2
      1.37688045513078682197e-03 	 4 3 4 3
      5.73702265512449072205e-03 	 4 3 4 4
     -4.60140990644692087636e-04 	 4 3 5 1
     -7.90085904602284404968e-04 	 4 3 5 2
     -6.16820520202088890503e-04 	 4 3 5 3
     -9.24387332800165393946e-05 	 4 3 5 4
     -2.41004924522943879753e-03 	 4 3 5 5
      2.14925605636695287674e-04 	 4 3 6 1
      4.48876124589331435694e-04 	 4 3 6 2
      6.87913590076784159030e-04 	 4 3 6 3
     -1.21873246084058849473e-03 	 4 3 6 4
      5.31447986783566435191e-05 	 4 3 6 5
     -3.93337901945892977860e-04 	 4 3 6 6
     -4.05788725032056010918e-04 	 4 3 7 1
      4.26259035143214685872e-04 	 4 3 7 2
     -4.71371754276344993341e-04 	 4 3 7 3
     -4.33990379726675867822e-04 	 4 3 7 4
      6.48279962898337214043e-04 	 4 3 7 5
      1.30914429730734816100e-04 	 4 3 7 6
     -1.88579786375132809478e-03 	 4 3 7 7
     -4.83143791038261700629e-04 	 4 3 8 1
     -2.52925271906361143757e-05 	 4 3 8 2
     -3.04914095872998492948e-04 	 4 3 8 3
     -4.96602399958958272939e-04 	 4 3 8 4
     -5.57705206602114133933e-04 	 4 3 8 5
      2.81307317765146615643e-04 	 4 3 8 6
     -3.33268931510249802937e-05 	 4 3 8 7
      1.09426223456404302786e-03 	 4 3 8 8
      1.11455979822706899296e-01 	 4 4 1 1
     -1.81665744384005190155e-03 	 4 4 2 1
      1.58488585278219823449e-01 	 4 4 2 2
      3.99952589948831677136e-02 	 4 4 3 1
      1.19723099654770251399e-02 	 4 4 3 2
      7.80596787132414732246e-02 	 4 4 3 3
      3.54422036177386027070e-03 	 4 4 4 1
      9.03635016870851272286e-03 	 4 4 4 2
      5.73702265512447510953e-03 	 4 4 4 3
      4.54552002178168379487e-01 	 4 4 4 4
      3.79716185395147926007e-03 	 4 4 5 1
      1.93310261446070254243e-02 	 4 4 5 2
     -3.96368424674683941106e-03 	 4 4 5 3
      1.32155550950445715291e-03 	 4 4 5 4
      1.65899078237131153424e-01 	 4 4 5 5
      3.98698281561586653776e-03 	 4 4 6 1
     -2.16334965914940840701e-03 	 4 4 6 2
     -8.58380911092171058896e-04 	 4 4 6 3
     -1.10193310674500527524e-02 	 4 4 6 4
      1.17423238782122943760e-03 	 4 4 6 5
      3.14481517732313864411e-01 	 4 4 6 6
     -4.62153242954474186011e-02 	 4 4 7 1
     -1.05138884086422284420e-02 	 4 4 7 2
     -1.48108270041101587611e-02 	 4 4 7 3
     -1.98366049468737520173e-03 	 4 4 7 4
     -2.44451716138129613101e-03 	 4 4 7 5
      3.28246635451722107782e-03 	 4 4 7 6
      3.36864666065290752073e-02 	 4 4 7 7
      1.91385955482134507630e-03 	 4 4 8 1
      1.43291694717817552629e-03 	 4 4 8 2
      1.68481147488533139663e-03 	 4 4 8 3
     -1.68680311587224886216e-02 	 4 4 8 4
      6.22917867497768500129e-03 	 4 4 8 5
      9.71964210046780824337e-03 	 4 4 8 6
      1.48336943731262730674e-03 	 4 4 8 7
      2.59364743510578088515e-01 	 4 4 8 8
     -1.75827375026692545035e-02 	 5 1 1 1
      4.49555205437994281296e-04 	 5 1 2 1
     -2.90874871715112587323e-03 	 5 1 2 2
      3.87987090529378665649e-03 	 5 1 3 1
      3.36190608494102340792e-03 	 5 1 3 2
     -7.68406258667578192373e-03 	 5 1 3 3
     -9.00869409889059106177e-04 	 5 1 4 1
     -1.33342866474942954753e-03 	 5 1 4 2
     -4.60140990644687425566e-04 	 5 1 4 3
      3.79716185395147882639e-03 	 5 1 4 4
      6.39073082667146376984e-03 	 5 1 5 1
      6.15730169789912261391e-03 	 5 1 5 2
      1.23789390374604165411e-03 	 5 1 5 3
     -6.11657026698016561585e-04 	 5 1 5 4
     -6.37489433698430404962e-03 	 5 1 5 5
     -8.75267935944404004180e-04 	 5 1 6 1
     -4.35385792212833249923e-04 	 5 1 6 2
     -8.65298276266432387326e-04 	 5 1 6 3
      1.37681370770727966660e-03 	 5 1 6 4
      3.01449382523932417517e-04 	 5 1 6 5
      1.22502945755162302721e-02 	 5 1 6 6
     -5.01576315010815627915e-03 	 5 1 7 1
     -2.81170890601163854516e-03 	 5 1 7 2
      4.12977043037543716658e-04 	 5 1 7 3
      2.17261286713347893419e-04 	 5 1 7 4
     -2.32152739000313513423e-03 	 5 1 7 5
      9.20283148695725042310e-04 	 5 1 7 6
     -1.41440278554125671573e-02 	 5 1 7 7
      2.50881484328558009012e-03 	 5 1 8 1
      2.74337018645802064795e-04 	 5 1 8 2
      8.74687113396052390996e-04 	 5 1 8 3
      4.34102553402336338237e-04 	 5 1 8 4
      4.08629623378230916186e-03 	 5 1 8 5
     -4.89269448951673655707e-04 	 5 1 8 6
     -1.93552120851200540200e-04 	 5 1 8 7
     -3.02253269232365031488e-03 	 5 1 8 8
     -2.46762210066888594551e-02 	 5 2 1 1
      2.63225262648126689252e-03 	 5 2 2 1
     -1.48272850329831881733e-02 	 5 2 2 2
      4.91877012006152001394e-03 	 5 2 3 1
      1.20868651560781283083e-02 	 5 2 3 2
     -1.26957794467613994949e-02 	 5 2 3 3
     -1.15503972926362416355e-03 	 5 2 4 1
     -4.13650953312188086192e-03 	 5 2 4 2
     -7.90085904602282019724e-04 	 5 2 4 3
      1.93310261446070393021e-02 	 5 2 4 4
      6.15730169789909832778e-03 	 5 2 5 1
      2.30436182197212846567e-02 	 5 2 5 2
      2.18769490459692125123e-03 	 5 2 5 3
      4.57588331101455643869e-04 	 5 2 5 4
     -8.54277127529559990315e-03 	 5 2 5 5
     -5.27267805630801428447e-04 	 5 2 6 1
     -8.70182000197260770852e-04 	 5 2 6 2
     -9.52534914654052907237e-04 	 5 2 6 3
      6.16135188130024873121e-03 	 5 2 6 4
      2.37437739356879387240e-03 	 5 2 6 5
      3.27248866715061301202e-02 	 5 2 6 6
     -8.94949042402589170497e-03 	 5 2 7 1
     -8.64865991381019716400e-03 	 5 2 7 2
      2.25958411208093462239e-03 	 5 2 7 3
      5.48185036085641497899e-04 	 5 2 7 4
     -5.45121062412994884794e-03 	 5 2 7 5
      1.91822322504055405024e-03 	 5 2 7 6
     -2.48796547399112166765e-02 	 5 2 7 7
      3.85623794860027882883e-03 	 5 2 8 1
     -1.80525806045590754730e-03 	 5 2 8 2
      1.94357073255675000256e-03 	 5 2 8 3
      7.48794316926561275352e-04 	 5 2 8 4
      9.27692685503785779977e-03 	 5 2 8 5
      4.53164019510204039987e-04 	 5 2 8 6
      9.75645161207075629775e-05 	 5 2 8 7
     -8.37108588552631580071e-03 	 5 2 8 8
      3.71097796821203990830e-03 	 5 3 1 1
      7.07997180430284134972e-04 	 5 3 2 1
      5.40181406191900422009e-03 	 5 3 2 2
     -4.27542175579612095289e-04 	 5 3 3 1
      1.99038843636499410486e-03 	 5 3 3 2
     -1.51065439130787862454e-03 	 5 3 3 3
     -3.62800108059612943547e-04 	 5 3 4 1
     -6.57019791749352826023e-04 	 5 3 4 2
     -6.16820520202089324184e-04 	 5 3 4 3
     -3.96368424674681772701e-03 	 5 3 4 4
      1.23789390374603644994e-03 	 5 3 5 1
      2.18769490459691517970e-03 	 5 3 5 2
      2.85530278006549927475e-03 	 5 3 5 3
     -1.82845016216902605654e-04 	 5 3 5 4
      4.46642209958425951549e-03 	 5 3 5 5
     -6.69589118528279370404e-04 	 5 3 6 1
     -8.19515490300921570091e-05 	 5 3 6 2
     -4.34659974080349638132e-04 	 5 3 6 3
      2.12287696174568753238e-03 	 5 3 6 4
     -2.16071091139389030115e-04 	 5 3 6 5
      1.62781750273728489757e-03 	 5 3 6 6
      1.12173719741696020433e-03 	 5 3 7 1
     -4.17911621268631460445e-04 	 5 3 7 2
      9.69800496938658996605e-04 	 5 3 7 3
      3.31413777877542130648e-04 	 5 3 7 4
     -1.64601065532272907571e-03 	 5 3 7 5
      3.51417101632494656427e-04 	 5 3 7 6
      4.92786942873768042672e-03 	 5 3 7 7
      6.87161423386373313056e-04 	 5 3 8 1
      4.56911047081779504893e-04 	 5 3 8 2
      6.75495065583055719592e-04 	 5 3 8 3
      8.43675956061256044401e-05 	 5 3 8 4
      1.47119590906638749925e-03 	 5 3 8 5
     -5.60500958591837543897e-04 	 5 3 8 6
      2.58509787172593819221e-05 	 5 3 8 7
     -2.24601635676499123209e-03 	 5 3 8 8
      5.80694754920892271775e-04 	 5 4 1 1
      7.64532167176725700828e-05 	 5 4 2 1
     -1.26365053622029500577e-03 	 5 4 2 2
     -1.03820301401574290566e-03 	 5 4 3 1
      1.82001752208945624840e-04 	 5 4 3 2
      1.49973658821135526903e-03 	 5 4 3 3
      1.40992276975108397604e-04 	 5 4 4 1
      3.49464795745631185645e-04 	 5 4 4 2
     -9.24387332800195345031e-05 	 5 4 4 3
      1.32155550950447840328e-03 	 5 4 4 4
     -6.11657026697986312344e-04 	 5 4 5 1
      4.57588331101450873379e-04 	 5 4 5 2
     -1.82845016216917161068e-04 	 5 4 5 3
      1.53278461358123977917e-03 	 5 4 5 4
      7.40731776253269785966e-04 	 5 4 5 5
      5.48571676006151098121e-04 	 5 4 6 1
      8.39534120009925786780e-04 	 5 4 6 2
      4.94233900839434686994e-04 	 5 4 6 3
      5.53536415636165330875e-04 	 5 4 6 4
      1.26473410598881104080e-03 	 5 4 6 5
     -2.20091768796159582833e-03 	 5 4 6 6
      7.66266716348166371242e-04 	 5 4 7 1
     -9.94888616860648477766e-05 	 5 4 7 2
      5.88192546654248745591e-04 	 5 4 7 3
      5.64704348908057264544e-05 	 5 4 7 4
     -1.31567794662608580046e-04 	 5 4 7 5
     -5.25063216250813463888e-04 	 5 4 7 6
      8.37631464276160733230e-04 	 5 4 7 7
     -6.25468882294990331967e-04 	 5 4 8 1
     -4.27649907753213144330e-04 	 5 4 8 2
     -2.81640981927336363829e-04 	 5 4 8 3
      4.04083895518207345757e-04 	 5 4 8 4
     -6.88625046845379139293e-04 	 5 4 8 5
      6.27113741047491055070e-04 	 5 4 8 6
      2.02501158872566908165e-04 	 5 4 8 7
     -3.05459841744510924438e-03 	 5 4 8 8
      2.63834816185721743320e-01 	 5 5 1 1
      4.46401643786995937918e-03 	 5 5 2 1
      2.58265290227403632173e-01 	 5 5 2 2
     -3.37879880350033497474e-03 	 5 5 3 1
     -6.23940996403194326342e-03 	 5 5 3 2
      2.17628046172733458086e-01 	 5 5 3 3
     -1.05248701185159561355e-03 	 5 5 4 1
      2.89310730578528274223e-03 	 5 5 4 2
     -2.41004924522944573642e-03 	 5 5 4 3
      1.65899078237130931379e-01 	 5 5 4 4
     -6.37489433698441073511e-03 	 5 5 5 1
     -8.54277127529550969753e-03 	 5 5 5 2
      4.46642209958429160788e-03 	 5 5 5 3
      7.40731776253193349713e-04 	 5 5 5 4
      3.81877803346647393123e-01 	 5 5 5 5
     -2.93390293558796382348e-03 	 5 5 6 1
     -1.67404481616029035887e-03 	 5 5 6 2
     -8.92787972313718826076e-04 	 5 5 6 3
      1.07104142753834848112e-02 	 5 5 6 4
     -6.56398787026344927159e-03 	 5 5 6 5
      1.97440645862338920447e-01 	 5 5 6 6
      6.52769416335402096613e-03 	 5 5 7 1
      1.72008733178733298590e-03 	 5 5 7 2
      5.37960126693416587455e-04 	 5 5 7 3
      1.92149466971373904592e-03 	 5 5 7 4
     -5.69071532664735743601e-03 	 5 5 7 5
      8.05938708733912561981e-04 	 5 5 7 6
      2.19254121791110950790e-01 	 5 5 7 7
      3.97595691328791848995e-03 	 5 5 8 1
      8.58891346127471297378e-03 	 5 5 8 2
      4.04467920980432910083e-03 	 5 5 8 3
     -8.37984839878324477835e-03 	 5 5 8 4
     -1.10962221971996483072e-02 	 5 5 8 5
     -4.57963659455294224560e-03 	 5 5 8 6
     -2.60534894741360064860e-03 	 5 5 8 7
      2.06753105399427955513e-01 	 5 5 8 8
     -3.71378423211693562030e-04 	 6 1 1 1
     -4.39174704295796454120e-04 	 6 1 2 1
     -1.35525934008646434942e-03 	 6 1 2 2
     -7.63654206956990394377e-05 	 6 1 3 1
     -3.84758090377302394269e-04 	 6 1 3 2
     -3.63928830877148718273e-03 	 6 1 3 3
      3.33590311407950949104e-04 	 6 1 4 1
      4.93013584336671000473e-04 	 6 1 4 2
      2.14925605636697808444e-04 	 6 1 4 3
      3.98698281561590643640e-03 	 6 1 4 4
     -8.75267935944398583169e-04 	 6 1 5 1
     -5.27267805630811836788e-04 	 6 1 5 2
     -6.69589118528282189330e-04 	 6 1 5 3
      5.48571676006154784408e-04 	 6 1 5 4
     -2.93390293558797726758e-03 	 6 1 5 5
      2.86444993067493797190e-03 	 6 1 6 1
      3.12521750278480360367e-04 	 6 1 6 2
      1.29556334734308334182e-03 	 6 1 6 3
     -1.37386880800456547685e-03 	 6 1 6 4
      8.25810234890377178017e-04 	 6 1 6 5
      2.91485612524365047746e-03 	 6 1 6 6
     -3.16148463127285202137e-04 	 6 1 7 1
      3.30783597331426259223e-04 	 6 1 7 2
     -3.69350215011244654463e-04 	 6 1 7 3
     -2.15103914586801221124e-04 	 6 1 7 4
      4.10047240978474506184e-04 	 6 1 7 5
     -1.41104938140696584657e-03 	 6 1 7 6
     -2.71732247589100747026e-03 	 6 1 7 7
     -1.07303595861742021370e-03 	 6 1 8 1
     -2.37727046624143249147e-05 	 6 1 8 2
     -4.92199252935632530076e-04 	 6 1 8 3
      2.79798260897916274345e-04 	 6 1 8 4
     -8.78726227433101136043e-04 	 6 1 8 5
      1.28302662866240646533e-03 	 6 1 8 6
      2.10437263965445941561e-04 	 6 1 8 7
      6.82088558029004643057e-05 	 6 1 8 8
      2.22949152164407006504e-04 	 6 2 1 1
     -2.51699056014461112433e-04 	 6 2 2 1
      1.44736524045701057603e-03 	 6 2 2 2
     -5.25175445528927131549e-04 	 6 2 3 1
     -8.93037486032371855341e-04 	 6 2 3 2
      3.14701183223088632422e-04 	 6 2 3 3
      2.15492817716976612762e-04 	 6 2 4 1
      1.35852761850633317088e-03 	 6 2 4 2
      4.48876124589333929359e-04 	 6 2 4 3
     -2.16334965914941144277e-03 	 6 2 4 4
     -4.35385792212809180635e-04 	 6 2 5 1
     -8.70182000197279744390e-04 	 6 2 5 2
     -8.19515490300929295032e-05 	 6 2 5 3
      8.39534120009926654142e-04 	 6 2 5 4
     -1.67404481616024287081e-03 	 6 2 5 5
      3.12521750278466374159e-04 	 6 2 6 1
      2.42127107816878742869e-03 	 6 2 6 2
      8.56268959306351459468e-04 	 6 2 6 3
     -9.48546513436319157879e-04 	 6 2 6 4
      1.49515653456505225212e-03 	 6 2 6 5
     -1.36963867578717064279e-03 	 6 2 6 6
      5.53542324343009339328e-04 	 6 2 7 1
      7.70671402907806626925e-04 	 6 2 7 2
     -4.40748308418660350626e-05 	 6 2 7 3
     -3.55547105547100901479e-04 	 6 2 7 4
      3.26727688597561530259e-04 	 6 2 7 5
     -6.95962074305453448110e-04 	 6 2 7 6
      4.43851211108486692555e-04 	 6 2 7 7
     -5.08895145397125314539e-04 	 6 2 8 1
      1.62851267386564349830e-04 	 6 2 8 2
     -2.03645203412659484389e-04 	 6 2 8 3
      6.64505902011975550618e-04 	 6 2 8 4
     -6.23376663605315910373e-04 	 6 2 8 5
      3.18874828338094212267e-04 	 6 2 8 6
      3.76084865799941343162e-05 	 6 2 8 7
     -1.81288954752131586598e-03 	 6 2 8 8
      3.70536548945642457004e-03 	 6 3 1 1
     -2.58809636739998978790e-04 	 6 3 2 1
     -2.75851231900552606134e-04 	 6 3 2 2
     -1.95188831476694486106e-03 	 6 3 3 1
     -1.38219577493215459510e-03 	 6 3 3 2
      9.99850264421380321989e-03 	 6 3 3 3
      3.21438384323780002548e-04 	 6 3 4 1
      7.22724743974877581638e-04 	 6 3 4 2
      6.87913590076786002174e-04 	 6 3 4 3
     -8.58380911092195128184e-04 	 6 3 4 4
     -8.65298276266413522208e-04 	 6 3 5 1
     -9.52534914654070471313e-04 	 6 3 5 2
     -4.34659974080349529712e-04 	 6 3 5 3
      4.94233900839436530138e-04 	 6 3 5 4
     -8.92787972313698226234e-04 	 6 3 5 5
      1.29556334734307922185e-03 	 6 3 6 1
      8.56268959306354603654e-04 	 6 3 6 2
      1.98427144237033363169e-03 	 6 3 6 3
     -5.94912871107810626095e-04 	 6 3 6 4
      4.00163253966410222690e-04 	 6 3 6 5
     -7.36753626931273752562e-04 	 6 3 6 6
      1.39288631247357639134e-03 	 6 3 7 1
      7.04720589690649868581e-04 	 6 3 7 2
      4.35200373314214780662e-04 	 6 3 7 3
      2.58338383826423110927e-04 	 6 3 7 4
      6.34661631854983496713e-04 	 6 3 7 5
     -4.12263629906570974910e-04 	 6 3 7 6
      4.13815483173924757859e-03 	 6 3 7 7
     -7.96351811807131980750e-04 	 6 3 8 1
      1.15332400971845515803e-04 	 6 3 8 2
     -4.82024200999587638678e-04 	 6 3 8 3
      3.46444462709909482877e-05 	 6 3 8 4
     -9.48225601003288174826e-04 	 6 3 8 5
      6.85293983895441044876e-04 	 6 3 8 6
      1.59105352341020768719e-04 	 6 3 8 7
     -9.70013966598033640018e-04 	 6 3 8 8
      3.68815144381520873193e-03 	 6 4 1 1
      1.56598088714572690819e-03 	 6 4 2 1
      1.13226670101575221938e-02 	 6 4 2 2
     -2.97517568975458552086e-03 	 6 4 3 1
      3.40144461673812974548e-03 	 6 4 3 2
      1.02033837903717991558e-02 	 6 4 3 3
     -4.32698260503661417606e-04 	 6 4 4 1
     -2.03069745529795443045e-03 	 6 4 4 2
     -1.21873246084058133899e-03 	 6 4 4 3
     -1.10193310674501498969e-02 	 6 4 4 4
      1.37681370770729311070e-03 	 6 4 5 1
      6.16135188130022184300e-03 	 6 4 5 2
      2.12287696174568146085e-03 	 6 4 5 3
      5.53536415636168583482e-04 	 6 4 5 4
      1.07104142753835316487e-02 	 6 4 5 5
     -1.37386880800455832112e-03 	 6 4 6 1
     -9.48546513436285113931e-04 	 6 4 6 2
     -5.94912871107807481909e-04 	 6 4 6 3
      1.30618487165906262820e-02 	 6 4 6 4
      7.19054992223872404579e-04 	 6 4 6 5
     -1.42491604823291552126e-03 	 6 4 6 6
      1.86067010962882579787e-03 	 6 4 7 1
     -2.59555797998559795170e-03 	 6 4 7 2
      3.95955754289471859725e-03 	 6 4 7 3
      8.01398934699490807579e-04 	 6 4 7 4
     -2.95036324072456236298e-03 	 6 4 7 5
      8.29624914567542517951e-04 	 6 4 7 6
      1.20384059840991930468e-02 	 6 4 7 7
      1.36141231567467888355e-03 	 6 4 8 1
      5.85864579194655195511e-04 	 6 4 8 2
      6.40164021860650366696e-04 	 6 4 8 3
      1.18658958569753088599e-03 	 6 4 8 4
      2.22474445645654862747e-03 	 6 4 8 5
     -4.83994367809543199824e-04 	 6 4 8 6
      1.87017693975442556844e-04 	 6 4 8 7
     -6.01407727240367648985e-03 	 6 4 8 8
     -8.43089221066253488579e-03 	 6 5 1 1
      3.06603991616737607149e-05 	 6 5 2 1
     -3.10204532009624453850e-03 	 6 5 2 2
      5.00619475133850665334e-04 	 6 5 3 1
      1.72141809620629049685e-03 	 6 5 3 2
     -6.05945862026301389908e-03 	 6 5 3 3
      2.43695773145751186806e-04 	 6 5 4 1
     -3.26199703066769731812e-06 	 6 5 4 2
      5.31447986783575515384e-05 	 6 5 4 3
      1.17423238782130229599e-03 	 6 5 4 4
      3.01449382523938217999e-04 	 6 5 5 1
      2.37437739356877218835e-03 	 6 5 5 2