&FCI NORB=8,NELEC=0,MS2=0
ORBSYM=1,1,1,1,
ISYM=1,
/
      4.07806993339672879673e-02 	 1 1 1 1
     -8.34836295678489763439e-04 	 1 2 1 1
     -1.29057875054421171412e-02 	 1 3 1 1
      1.02744779297606731415e-03 	 1 4 1 1
     -4.65344515526143823192e-03 	 1 5 1 1
     -8.52047687171789613556e-04 	 1 6 1 1
      1.77435168321047574691e-02 	 1 7 1 1
     -2.97958004434329846652e-03 	 1 8 1 1
     -8.34836295678491823423e-04 	 2 1 1 1
      1.28086625527742137276e-02 	 2 2 1 1
     -9.47869153624828972293e-03 	 2 3 1 1
      1.95382080579627626787e-03 	 2 4 1 1
     -1.19327501451917568354e-02 	 2 5 1 1
      6.53065894378020519485e-04 	 2 6 1 1
      8.01556426841778905945e-03 	 2 7 1 1
      1.13002866721164589407e-03 	 2 8 1 1
     -1.29057875054421067329e-02 	 3 1 1 1
     -9.47869153624828278404e-03 	 3 2 1 1
      4.25549247342659059390e-02 	 3 3 1 1
     -4.43085897735215773069e-04 	 3 4 1 1
      9.55432465012409095316e-04 	 3 5 1 1
      1.67247433166943602206e-03 	 3 6 1 1
      3.73291676847814762191e-03 	 3 7 1 1
     -1.39178064594519144623e-03 	 3 8 1 1
      1.02744779297607078360e-03 	 4 1 1 1
      1.95382080579627149738e-03 	 4 2 1 1
     -4.43085897735217399372e-04 	 4 3 1 1
     -4.58314748023961188172e-02 	 4 4 1 1
      3.80132506265128545641e-04 	 4 5 1 1
      2.18642461703996184019e-03 	 4 6 1 1
      2.41757508724841545591e-04 	 4 7 1 1
     -1.33571795492821781756e-03 	 4 8 1 1
     -4.65344515526143302775e-03 	 5 1 1 1
     -1.19327501451917377534e-02 	 5 2 1 1
      9.55432465012407360593e-04 	 5 3 1 1
      3.80132506265125564085e-04 	 5 4 1 1
      9.27559973399555079410e-03 	 5 5 1 1
     -2.47128183763261179487e-03 	 5 6 1 1
      3.44622497128267615135e-03 	 5 7 1 1
     -5.97246381942873830889e-03 	 5 8 1 1
     -8.52047687171786794630e-04 	 6 1 1 1
      6.53065894378013363751e-04 	 6 2 1 1
      1.67247433166943753995e-03 	 6 3 1 1
      2.18642461703997615166e-03 	 6 4 1 1
     -2.47128183763260832542e-03 	 6 5 1 1
     -4.49918338937569384228e-02 	 6 6 1 1
     -3.03527542367460281825e-03 	 6 7 1 1
     -1.52469678946326957746e-03 	 6 8 1 1
      1.77435168321047748163e-02 	 7 1 1 1
      8.01556426841778732473e-03 	 7 2 1 1
      3.73291676847815716289e-03 	 7 3 1 1
      2.41757508724841084806e-04 	 7 4 1 1
      3.44622497128267571767e-03 	 7 5 1 1
     -3.03527542367460238457e-03 	 7 6 1 1
      7.01380756854809161993e-02 	 7 7 1 1
     -4.52004120170359927674e-04 	 7 8 1 1
     -2.97958004434329933388e-03 	 8 1 1 1
      1.13002866721166432551e-03 	 8 2 1 1
     -1.39178064594519209675e-03 	 8 3 1 1
     -1.33571795492823841740e-03 	 8 4 1 1
     -5.97246381942874177834e-03 	 8 5 1 1
     -1.52469678946327521531e-03 	 8 6 1 1
     -4.52004120170359331363e-04 	 8 7 1 1
     -8.45032614770028708828e-03 	 8 8 1 1
      0.00000000000000000000e+00 	 0 0 0 0
