
Host: cn106.karolina.it4i.cz

Timers On : Wed Oct 29 16:41:34 2025
Timers Off: Wed Oct 29 16:41:35 2025

Wall Time:        0.62 seconds

                                                       Time (seconds)
Module                                       User      System        Wall        Calls

--------------------------------------------------------------------------------------

**************************************************************************************
