
Host: cn384.karolina.it4i.cz

Timers On : Wed Nov  5 16:09:21 2025
Timers Off: Wed Nov  5 16:09:22 2025

Wall Time:        0.93 seconds

                                                       Time (seconds)
Module                                       User      System        Wall        Calls

--------------------------------------------------------------------------------------

**************************************************************************************
