&FCI NORB=8,NELEC=0,MS2=0
ORBSYM=1,1,1,1,
ISYM=1,
/
      5.92854735697971313435e-01 	 1 1 1 1
      7.12211048964119484983e-03 	 1 1 2 1
      1.12407075707344566995e-01 	 1 1 2 2
      2.90460585069519695856e-02 	 1 1 3 1
     -6.24817883572691482041e-03 	 1 1 3 2
      3.32058005225096652957e-01 	 1 1 3 3
     -4.68963331693338005696e-03 	 1 1 4 1
      7.44787641290398506715e-04 	 1 1 4 2
     -2.05275817014991777965e-02 	 1 1 4 3
      2.41354521067319416350e-01 	 1 1 4 4
      3.36558217976992979370e-02 	 1 1 5 1
     -2.03904718465952213002e-02 	 1 1 5 2
     -2.22888316798937648200e-02 	 1 1 5 3
     -9.97702552263331904348e-03 	 1 1 5 4
      3.98960060408535988064e-01 	 1 1 5 5
      8.82684666775253486126e-03 	 1 1 6 1
     -2.42577622174952730813e-03 	 1 1 6 2
     -2.31049368256060969062e-02 	 1 1 6 3
     -2.49590387239592842450e-02 	 1 1 6 4
     -1.12106053970025439093e-02 	 1 1 6 5
      1.69690530462150712676e-01 	 1 1 6 6
      3.16881438319906042281e-03 	 1 1 7 1
      9.25800074593441726933e-03 	 1 1 7 2
      8.48977396430859385101e-03 	 1 1 7 3
      8.24822684074655483599e-03 	 1 1 7 4
      2.17254632130100752696e-02 	 1 1 7 5
      3.29220434154377022615e-04 	 1 1 7 6
      1.67320326618210418745e-01 	 1 1 7 7
      5.97821500629603652666e-02 	 1 1 8 1
      3.73723187860274625935e-03 	 1 1 8 2
     -1.00106061665702350538e-02 	 1 1 8 3
      2.42220818614378476108e-03 	 1 1 8 4
     -1.02124307873158737259e-02 	 1 1 8 5
      6.76297449883403803406e-03 	 1 1 8 6
      7.49508143862595305890e-04 	 1 1 8 7
      2.96634342129870554050e-01 	 1 1 8 8
      7.12211048964120959498e-03 	 2 1 1 1
      1.44825847171663928473e-03 	 2 1 2 1
     -2.10364789010750175002e-04 	 2 1 2 2
      7.91474386762808430375e-04 	 2 1 3 1
     -9.03573213408603252011e-04 	 2 1 3 2
      3.72631747623429487870e-03 	 2 1 3 3
      3.76550513076539280881e-04 	 2 1 4 1
      7.82368966009985112664e-06 	 2 1 4 2
     -1.09535054690247917603e-03 	 2 1 4 3
      2.54827213906944809521e-03 	 2 1 4 4
      6.51510736723583615791e-04 	 2 1 5 1
     -1.87191214363962915232e-03 	 2 1 5 2
     -8.31896929933826061870e-04 	 2 1 5 3
     -5.41150416580765984340e-04 	 2 1 5 4
      3.95898616317633990358e-03 	 2 1 5 5
      5.86073938932624573066e-04 	 2 1 6 1
     -5.12177997823342885490e-04 	 2 1 6 2
     -1.56273526140842246128e-03 	 2 1 6 3
     -1.96247622496557990943e-03 	 2 1 6 4
     -7.41948232531502169587e-04 	 2 1 6 5
      4.90924709272989954340e-04 	 2 1 6 6
     -6.07106319619482082996e-04 	 2 1 7 1
      1.57980851694488320415e-03 	 2 1 7 2
      6.73726844412089764282e-04 	 2 1 7 3
      3.74875842264896599366e-04 	 2 1 7 4
      1.40178677403208964275e-03 	 2 1 7 5
      3.60776890551472940918e-04 	 2 1 7 6
      2.18453972963957541997e-03 	 2 1 7 7
      8.93146367864547244611e-04 	 2 1 8 1
     -6.39466621071005814764e-04 	 2 1 8 2
     -1.67118497768722461955e-04 	 2 1 8 3
      9.68417550398816402669e-05 	 2 1 8 4
     -3.38794026767287451748e-04 	 2 1 8 5
      3.03892899392023093427e-05 	 2 1 8 6
      2.33944303700326776971e-04 	 2 1 8 7
      4.64018487644333402914e-03 	 2 1 8 8
      1.12407075707344622506e-01 	 2 2 1 1
     -2.10364789010775328493e-04 	 2 2 2 1
      4.11895922797222868716e-01 	 2 2 2 2
     -1.28125353371892521104e-02 	 2 2 3 1
     -6.34805408749167547275e-04 	 2 2 3 2
      1.06696806223875909070e-01 	 2 2 3 3
      5.09001082413361276291e-03 	 2 2 4 1
     -2.71913365367575663237e-03 	 2 2 4 2
      1.36126594607755783267e-02 	 2 2 4 3
      1.28183257368969599765e-01 	 2 2 4 4
     -1.84731143969806138605e-02 	 2 2 5 1
      4.39992635840030787975e-03 	 2 2 5 2
      1.30003950340596610008e-02 	 2 2 5 3
      5.39208336040770432052e-03 	 2 2 5 4
      4.21396800746209887478e-02 	 2 2 5 5
     -3.04717406178066059844e-03 	 2 2 6 1
     -2.15454301650423165823e-03 	 2 2 6 2
      1.92490657245182467117e-02 	 2 2 6 3
      2.75222187875920447364e-02 	 2 2 6 4
      1.10999687177533862270e-02 	 2 2 6 5
      1.93216215129260265870e-01 	 2 2 6 6
     -4.38191985534666910568e-03 	 2 2 7 1
      3.87576234788774382986e-03 	 2 2 7 2
     -4.30405916874360486291e-03 	 2 2 7 3
     -3.18558378327270935726e-03 	 2 2 7 4
     -1.43066704172249807570e-02 	 2 2 7 5
     -3.73796861547804129544e-03 	 2 2 7 6
      2.76984783169834936079e-01 	 2 2 7 7
     -3.00823041972993060478e-02 	 2 2 8 1
      2.95131655619871409099e-03 	 2 2 8 2
      5.75142407749392337718e-03 	 2 2 8 3
     -1.04030134902475448339e-02 	 2 2 8 4
      5.26589798373806004805e-03 	 2 2 8 5
     -8.37038969889653504397e-03 	 2 2 8 6
      6.75318153429139630961e-03 	 2 2 8 7
      1.77032380442048692393e-01 	 2 2 8 8
      2.90460585069519695856e-02 	 3 1 1 1
      7.91474386762816236630e-04 	 3 1 2 1
     -1.28125353371892486409e-02 	 3 1 2 2
      8.39690322403569000542e-03 	 3 1 3 1
     -1.89037932767656229049e-03 	 3 1 3 2
      4.02847749374314889614e-02 	 3 1 3 3
     -6.87136032037646707696e-04 	 3 1 4 1
     -3.35034448704972921511e-04 	 3 1 4 2
     -4.31184011061025180417e-03 	 3 1 4 3
      2.96485403281950433280e-03 	 3 1 4 4
      2.32027531225172112261e-03 	 3 1 5 1
     -3.07476164323430226771e-03 	 3 1 5 2
     -3.61268192804449278163e-03 	 3 1 5 3
     -1.15590772762946651653e-03 	 3 1 5 4
      1.86890040212298602640e-02 	 3 1 5 5
      6.88577692792017009155e-04 	 3 1 6 1
     -1.02518028676691847281e-03 	 3 1 6 2
     -4.87428888694774187229e-03 	 3 1 6 3
     -3.99102033305640674365e-03 	 3 1 6 4
     -1.61666099275928733595e-03 	 3 1 6 5
     -7.63953437248697780210e-03 	 3 1 6 6
      9.17422792530234675577e-04 	 3 1 7 1
      2.82421049238595553432e-03 	 3 1 7 2
      1.55720458139274381057e-03 	 3 1 7 3
      1.03671729344737549063e-03 	 3 1 7 4
      2.90311607400226467587e-03 	 3 1 7 5
      5.10372038308262308999e-04 	 3 1 7 6
     -1.49520619976150920954e-03 	 3 1 7 7
      6.41559037883288746373e-03 	 3 1 8 1
      9.38572983315340758290e-04 	 3 1 8 2
     -1.36213704606132426922e-03 	 3 1 8 3
      1.42070685014606865569e-03 	 3 1 8 4
     -1.49528492844543461904e-03 	 3 1 8 5
      8.31465695507596592659e-04 	 3 1 8 6
     -4.96305419640244481830e-04 	 3 1 8 7
      5.19227270446159881040e-03 	 3 1 8 8
     -6.24817883572691655514e-03 	 3 2 1 1
     -9.03573213408606070937e-04 	 3 2 2 1
     -6.34805408749188797637e-04 	 3 2 2 2
     -1.89037932767656163997e-03 	 3 2 3 1
      1.92866293385122425548e-03 	 3 2 3 2
     -1.75266583547559716416e-02 	 3 2 3 3
     -2.10153856711790842406e-04 	 3 2 4 1
      8.63208214918436637225e-04 	 3 2 4 2
      2.31546989197500309443e-03 	 3 2 4 3
     -4.37631815133708535967e-04 	 3 2 4 4
     -1.20024763290670771765e-03 	 3 2 5 1
      2.82367924198750333206e-03 	 3 2 5 2
      1.65190477928671766716e-03 	 3 2 5 3
      8.20188577972430239021e-04 	 3 2 5 4
     -5.03567814160082657948e-03 	 3 2 5 5
     -6.28904792178657640576e-04 	 3 2 6 1
      1.80258433995290055264e-03 	 3 2 6 2
      2.81011614177556143246e-03 	 3 2 6 3
      2.40534681401150191374e-03 	 3 2 6 4
      1.11624407569812654668e-03 	 3 2 6 5
      4.62075534066875431849e-03 	 3 2 6 6
      3.31273416669525852096e-04 	 3 2 7 1
     -3.01911431720263160813e-03 	 3 2 7 2
     -9.56291060718707686301e-04 	 3 2 7 3
     -6.98081403231352415166e-04 	 3 2 7 4
     -1.84352653633463301787e-03 	 3 2 7 5
     -6.92704907375693286313e-04 	 3 2 7 6
     -2.48572096911745411135e-03 	 3 2 7 7
     -1.93088695861190549723e-03 	 3 2 8 1
     -5.61648636542021878482e-04 	 3 2 8 2
      5.50969939952413324119e-04 	 3 2 8 3
     -4.04098454461353619530e-04 	 3 2 8 4
      4.54536692591753764027e-04 	 3 2 8 5
     -3.17743139650241725441e-04 	 3 2 8 6
      3.17575249637388730764e-04 	 3 2 8 7
     -2.87763326076214808608e-03 	 3 2 8 8
      3.32058005225096652957e-01 	 3 3 1 1
      3.72631747623430702177e-03 	 3 3 2 1
      1.06696806223875992337e-01 	 3 3 2 2
      4.02847749374314681448e-02 	 3 3 3 1
     -1.75266583547559438860e-02 	 3 3 3 2
      6.69089985092624406349e-01 	 3 3 3 3
     -3.16906873196349256686e-03 	 3 3 4 1
      1.34189660006454013208e-03 	 3 3 4 2
     -3.35907879183220403618e-02 	 3 3 4 3
      1.69736719299759641899e-01 	 3 3 4 4
      1.30608163041258280856e-02 	 3 3 5 1
     -1.10052108125353528822e-02 	 3 3 5 2
     -2.42382932394035605084e-02 	 3 3 5 3
     -4.39790656991471701903e-03 	 3 3 5 4
      2.54112740703371808859e-01 	 3 3 5 5
      2.42448019759203704099e-03 	 3 3 6 1
     -1.04220833210834818057e-03 	 3 3 6 2
     -3.58122453799248341433e-02 	 3 3 6 3
     -1.07564141072078508360e-02 	 3 3 6 4
     -5.02999780250918890334e-03 	 3 3 6 5
      1.29396453204048078600e-01 	 3 3 6 6
      3.41144056811770735038e-03 	 3 3 7 1
      9.07767559325713818685e-03 	 3 3 7 2
      9.58257940986437239950e-03 	 3 3 7 3
      5.57023423825882095517e-03 	 3 3 7 4
      1.24082597242476909416e-02 	 3 3 7 5
      5.02225154287372073207e-04 	 3 3 7 6
      1.61688380328181197099e-01 	 3 3 7 7
      3.12545948099146597698e-02 	 3 3 8 1
      3.83871104381276794307e-03 	 3 3 8 2
     -9.85689835685111398478e-03 	 3 3 8 3
      3.91712671945594354678e-03 	 3 3 8 4
     -6.92816764766010246418e-03 	 3 3 8 5
      3.90680338961312077078e-03 	 3 3 8 6
      1.03052371461118726786e-03 	 3 3 8 7
      2.06433927062689176468e-01 	 3 3 8 8
     -4.68963331693337485279e-03 	 4 1 1 1
      3.76550513076547846078e-04 	 4 1 2 1
      5.09001082413359801776e-03 	 4 1 2 2
     -6.87136032037639226701e-04 	 4 1 3 1
     -2.10153856711798621556e-04 	 4 1 3 2
     -3.16906873196346351024e-03 	 4 1 3 3
      1.72763584601327304345e-03 	 4 1 4 1
     -1.37597254074237144430e-04 	 4 1 4 2
     -6.83233787868610734084e-04 	 4 1 4 3
      6.38332748117799008564e-03 	 4 1 4 4
     -1.04240280727280806156e-03 	 4 1 5 1
     -5.61760018408468449896e-04 	 4 1 5 2
      1.58589931028449155747e-04 	 4 1 5 3
     -3.93965930181050701109e-04 	 4 1 5 4
     -3.37132710667873217170e-03 	 4 1 5 5
      5.74537539192187607720e-04 	 4 1 6 1
     -1.36076831198505345281e-04 	 4 1 6 2
     -8.37977182857427174527e-04 	 4 1 6 3
     -1.15559701924531363706e-03 	 4 1 6 4
     -3.34328589879938841648e-04 	 4 1 6 5
      6.42908948643469181639e-03 	 4 1 6 6
     -1.13986263661003265138e-03 	 4 1 7 1
      1.08630254074812047059e-03 	 4 1 7 2
      2.81250362898010015152e-04 	 4 1 7 3
      8.08493888211945046542e-05 	 4 1 7 4
      3.22908257632094158017e-04 	 4 1 7 5
      4.08806712410851640300e-06 	 4 1 7 6
      3.97333369730946180803e-03 	 4 1 7 7
     -1.99445941024848586581e-03 	 4 1 8 1
     -2.43565467322162388904e-04 	 4 1 8 2
      1.84843873282519667502e-04 	 4 1 8 3
     -1.03136417859139069980e-03 	 4 1 8 4
      2.63555874068796243750e-04 	 4 1 8 5
     -4.47140476028157218564e-04 	 4 1 8 6
      8.61178162285545991013e-04 	 4 1 8 7
      6.91887275265302102711e-03 	 4 1 8 8
      7.44787641290418456035e-04 	 4 2 1 1
      7.82368966010079302728e-06 	 4 2 2 1
     -2.71913365367579132684e-03 	 4 2 2 2
     -3.35034448704964573154e-04 	 4 2 3 1
      8.63208214918432517257e-04 	 4 2 3 2
      1.34189660006453297635e-03 	 4 2 3 3
     -1.37597254074223917164e-04 	 4 2 4 1
      1.46570181219082742302e-03 	 4 2 4 2
      8.17768783593098469616e-04 	 4 2 4 3
     -4.77040262750821463661e-03 	 4 2 4 4
     -4.38881472773120905745e-04 	 4 2 5 1
      1.08323053006802779569e-03 	 4 2 5 2
      4.91009839500925956979e-04 	 4 2 5 3
      5.18597339541721543549e-04 	 4 2 5 4
     -7.53839984658783292086e-04 	 4 2 5 5
     -3.45147134396836237445e-04 	 4 2 6 1
      1.71753778455183158703e-03 	 4 2 6 2
      7.20449858322199624024e-04 	 4 2 6 3
      7.13971062466524667919e-04 	 4 2 6 4
      7.14399825346762073520e-04 	 4 2 6 5
      2.10542143669608435713e-03 	 4 2 6 6
      1.24746910748233039433e-05 	 4 2 7 1
     -1.25332221416177996311e-03 	 4 2 7 2
     -3.80952319045930022992e-04 	 4 2 7 3
     -6.14015977946464350593e-04 	 4 2 7 4
     -4.24644375821286318168e-04 	 4 2 7 5
     -6.07276310431574236140e-04 	 4 2 7 6
     -6.05531390183436856942e-05 	 4 2 7 7
     -6.99958638551052402671e-04 	 4 2 8 1
     -6.24494839968329660748e-04 	 4 2 8 2
      1.79942670577814785911e-04 	 4 2 8 3
     -3.37384309960364592827e-04 	 4 2 8 4
      1.01379830233942243170e-04 	 4 2 8 5
     -2.18828845427563120239e-04 	 4 2 8 6
      5.81903671489569177672e-04 	 4 2 8 7
      7.66853228675524762475e-04 	 4 2 8 8
     -2.05275817014991812659e-02 	 4 3 1 1
     -1.09535054690248004339e-03 	 4 3 2 1
      1.36126594607755870003e-02 	 4 3 2 2
     -4.31184011061025700834e-03 	 4 3 3 1
      2.31546989197500656388e-03 	 4 3 3 2
     -3.35907879183220750563e-02 	 4 3 3 3
     -6.83233787868608999361e-04 	 4 3 4 1
      8.17768783593101830642e-04 	 4 3 4 2
      6.18640195538873016029e-03 	 4 3 4 3
     -2.02887775138763312710e-02 	 4 3 4 4
     -3.59411438577472795025e-03 	 4 3 5 1
      4.73238090570764300541e-03 	 4 3 5 2
      3.73384017181187678053e-03 	 4 3 5 3
      1.92480437173981385607e-03 	 4 3 5 4
     -2.38985041258742217374e-02 	 4 3 5 5
     -1.66868392481947990999e-03 	 4 3 6 1
      1.67926264358197172878e-03 	 4 3 6 2
      6.98478868945858356182e-03 	 4 3 6 3
      7.52358332147873981599e-03 	 4 3 6 4
      2.69403244125088290467e-03 	 4 3 6 5
      2.90124220496590498261e-03 	 4 3 6 6
      5.85935579255168564015e-04 	 4 3 7 1
     -4.28334291359439012226e-03 	 4 3 7 2
     -1.73805328135960600669e-03 	 4 3 7 3
     -1.46216060556654970509e-03 	 4 3 7 4
     -4.27869444847828704626e-03 	 4 3 7 5
     -5.99464660220412485017e-04 	 4 3 7 6
      2.03537915926117578269e-03 	 4 3 7 7
     -5.56620390517620182436e-03 	 4 3 8 1
     -7.34238946301579101933e-04 	 4 3 8 2
      1.55049715511438538501e-03 	 4 3 8 3
     -9.82447206927529806397e-04 	 4 3 8 4
      1.33088157256337031795e-03 	 4 3 8 5
     -1.38607825011159029906e-03 	 4 3 8 6
      4.14323662851681065629e-04 	 4 3 8 7
     -1.24039333864262735913e-02 	 4 3 8 8
      2.41354521067319610639e-01 	 4 4 1 1
      2.54827213906940559449e-03 	 4 4 2 1
      1.28183257368969433232e-01 	 4 4 2 2
      2.96485403281949088869e-03 	 4 4 3 1
     -4.37631815133682081434e-04 	 4 4 3 2
      1.69736719299759641899e-01 	 4 4 3 3
      6.38332748117797360576e-03 	 4 4 4 1
     -4.77040262750821203452e-03 	 4 4 4 2
     -2.02887775138763416793e-02 	 4 4 4 3
      4.74573665202338401681e-01 	 4 4 4 4
      1.28016091297554097939e-02 	 4 4 5 1
     -1.05244539133940318704e-02 	 4 4 5 2
     -7.61553088655995968903e-03 	 4 4 5 3
     -6.53873560141995414929e-03 	 4 4 5 4
      2.78808584888428911963e-01 	 4 4 5 5
      6.87889943363670201826e-03 	 4 4 6 1
     -6.19135035008275876750e-03 	 4 4 6 2
     -1.88809336774906286194e-02 	 4 4 6 3
     -3.83378200046085512720e-02 	 4 4 6 4
     -1.11768725188240054813e-02 	 4 4 6 5
      2.80712743154229671383e-01 	 4 4 6 6
     -6.72843854783888948440e-03 	 4 4 7 1
      1.07677883874757575680e-03 	 4 4 7 2
      3.92052873983727689228e-03 	 4 4 7 3
      1.13180442926350318528e-02 	 4 4 7 4
      1.27793490958484634579e-02 	 4 4 7 5
      2.21409192446307342972e-03 	 4 4 7 6
      1.55454544520669812879e-01 	 4 4 7 7
      1.61110509093784839973e-02 	 4 4 8 1
     -1.04662272664460785643e-03 	 4 4 8 2
     -6.28885887713505863095e-03 	 4 4 8 3
     -2.11288690674154644791e-03 	 4 4 8 4
     -5.30930473645309548847e-03 	 4 4 8 5
      1.02229126837429986491e-02 	 4 4 8 6
      1.07509601303524345191e-03 	 4 4 8 7
      2.91660001849176175881e-01 	 4 4 8 8
      3.36558217976994020204e-02 	 5 1 1 1
      6.51510736723591530467e-04 	 5 1 2 1
     -1.84731143969806034522e-02 	 5 1 2 2
      2.32027531225172979623e-03 	 5 1 3 1
     -1.20024763290671118710e-03 	 5 1 3 2
      1.30608163041258228815e-02 	 5 1 3 3
     -1.04240280727281218152e-03 	 5 1 4 1
     -4.38881472773123616250e-04 	 5 1 4 2
     -3.59411438577472534817e-03 	 5 1 4 3
      1.28016091297554115286e-02 	 5 1 4 4
      9.98099873724475790404e-03 	 5 1 5 1
     -5.43704271639103287050e-03 	 5 1 5 2
     -4.31505504998416430928e-03 	 5 1 5 3
     -2.18063144889420190697e-03 	 5 1 5 4
      5.76396534583701325438e-02 	 5 1 5 5
      1.33973160000990529697e-03 	 5 1 6 1
     -1.25956880256296549318e-03 	 5 1 6 2
     -4.56839980985636502642e-03 	 5 1 6 3
     -6.57291088455881286623e-03 	 5 1 6 4
     -3.17687418138895734387e-03 	 5 1 6 5
     -3.96510263397608069685e-03 	 5 1 6 6
      2.86394902330518120927e-04 	 5 1 7 1
      2.34622214945404139463e-03 	 5 1 7 2
      1.26696208658756475848e-03 	 5 1 7 3
      1.30525307240791921259e-03 	 5 1 7 4
      5.41346114395906824468e-03 	 5 1 7 5
      6.31270332909468078093e-04 	 5 1 7 6
     -8.16950494677962796297e-03 	 5 1 7 7
      7.58077093277249002001e-03 	 5 1 8 1
      4.43354373498728497691e-04 	 5 1 8 2
     -1.78072187101465653422e-03 	 5 1 8 3
      1.12808935427502975667e-03 	 5 1 8 4
     -1.71691994687811011824e-03 	 5 1 8 5
      1.59244969831110849516e-03 	 5 1 8 6
     -9.64831575123684440608e-04 	 5 1 8 7
      7.81730205795130861368e-03 	 5 1 8 8
     -2.03904718465952178308e-02 	 5 2 1 1
     -1.87191214363962394815e-03 	 5 2 2 1
      4.39992635840028099153e-03 	 5 2 2 2
     -3.07476164323430703820e-03 	 5 2 3 1
      2.82367924198749509213e-03 	 5 2 3 2
     -1.10052108125353459434e-02 	 5 2 3 3
     -5.61760018408467365694e-04 	 5 2 4 1
      1.08323053006802475992e-03 	 5 2 4 2
      4.73238090570764213805e-03 	 5 2 4 3
     -1.05244539133940700343e-02 	 5 2 4 4
     -5.43704271639104154412e-03 	 5 2 5 1
      8.91883267815742758478e-03 	 5 2 5 2
      4.14776399056337400501e-03 	 5 2 5 3
      2.33150625254943504039e-03 	 5 2 5 4
     -4.72941911170110182439e-02 	 5 2 5 5
     -1.79518481706989569899e-03 	 5 2 6 1
      3.08609675504698671711e-03 	 5 2 6 2
      6.15771993308805200285e-03 	 5 2 6 3
      8.34657776131400748476e-03 	 5 2 6 4
      3.65888861878699549884e-03 	 5 2 6 5
      5.88382817706439506522e-03 	 5 2 6 6
      1.09997626432694868906e-03 	 5 2 7 1
     -7.43412815232200041571e-03 	 5 2 7 2
     -1.86924939856311167832e-03 	 5 2 7 3
     -1.28801615221123917296e-03 	 5 2 7 4
     -6.72668103725967622686e-03 	 5 2 7 5
     -8.86597480394784101532e-04 	 5 2 7 6
     -1.43795390954854114540e-03 	 5 2 7 7
     -5.84947788873472779986e-03 	 5 2 8 1
     -1.32268040291302836804e-03 	 5 2 8 2
      1.34289657655056954635e-03 	 5 2 8 3
     -9.07832332513974055686e-04 	 5 2 8 4
      1.57625523332317581462e-03 	 5 2 8 5
     -1.24994015719194734131e-03 	 5 2 8 6
      7.08946802229937006121e-04 	 5 2 8 7
     -1.09873285110943935683e-02 	 5 2 8 8
     -2.22888316798937613505e-02 	 5 3 1 1
     -8.31896929933832133403e-04 	 5 3 2 1
      1.30003950340596557966e-02 	 5 3 2 2
     -3.61268192804449017955e-03 	 5 3 3 1
      1.65190477928672070293e-03 	 5 3 3 2
     -2.42382932394035986723e-02 	 5 3 3 3
      1.58589931028449372587e-04 	 5 3 4 1
      4.91009839500928342224e-04 	 5 3 4 2
      3.73384017181187504580e-03 	 5 3 4 3
     -7.61553088655997356682e-03 	 5 3 4 4
     -4.31505504998416777873e-03 	 5 3 5 1
      4.14776399056337227028e-03 	 5 3 5 2
      3.50300965290876792010e-03 	 5 3 5 3
      1.61908465008179483675e-03 	 5 3 5 4
     -3.44373449425516217626e-02 	 5 3 5 5
     -1.09230195221976869591e-03 	 5 3 6 1
      1.22420995802046458228e-03 	 5 3 6 2
      4.56041436154323420044e-03 	 5 3 6 3
      5.08397366994362345793e-03 	 5 3 6 4
      2.40720519958873609839e-03 	 5 3 6 5
      4.26282325815608483660e-03 	 5 3 6 6
      7.56220805118501863094e-05 	 5 3 7 1
     -2.69084386809321802342e-03 	 5 3 7 2
     -1.39167501558781162713e-03 	 5 3 7 3
     -1.15612045831453265701e-03 	 5 3 7 4
     -3.91571349871803683906e-03 	 5 3 7 5
     -6.52828916869583990301e-04 	 5 3 7 6
      3.67405690781202453471e-03 	 5 3 7 7
     -5.55038140918400965673e-03 	 5 3 8 1
     -5.14515578371672931482e-04 	 5 3 8 2
      1.26813600061791674489e-03 	 5 3 8 3
     -9.18405813842068565606e-04 	 5 3 8 4
      1.29911665945716694147e-03 	 5 3 8 5
     -9.76141015967024066637e-04 	 5 3 8 6
      4.35536171402661797299e-04 	 5 3 8 7
     -7.32816867554670920565e-03 	 5 3 8 8
     -9.97702552263332251292e-03 	 5 4 1 1
     -5.41150416580768586425e-04 	 5 4 2 1
      5.39208336040769824898e-03 	 5 4 2 2
     -1.15590772762947432278e-03 	 5 4 3 1
      8.20188577972435334772e-04 	 5 4 3 2
     -4.39790656991471615167e-03 	 5 4 3 3
     -3.93965930181057206322e-04 	 5 4 4 1
      5.18597339541729241384e-04 	 5 4 4 2
      1.92480437173981949392e-03 	 5 4 4 3
     -6.53873560141997409861e-03 	 5 4 4 4
     -2.18063144889420407538e-03 	 5 4 5 1
      2.33150625254943547407e-03 	 5 4 5 2
      1.61908465008179635464e-03 	 5 4 5 3
      1.20608157406179345057e-03 	 5 4 5 4
     -1.68119012393388514437e-02 	 5 4 5 5
     -8.92665572500482302348e-04 	 5 4 6 1
      9.01711928905911527451e-04 	 5 4 6 2
      2.41651994596331354259e-03 	 5 4 6 3
      3.25570388294344663718e-03 	 5 4 6 4
      1.49175273159744912338e-03 	 5 4 6 5
      6.62923784459285882209e-05 	 5 4 6 6
      4.48452225195494422194e-04 	 5 4 7 1
     -1.58063833259211128195e-03 	 5 4 7 2
     -8.23064793656640928537e-04 	 5 4 7 3
     -7.53309952032597688124e-04 	 5 4 7 4
     -2.12396586099981377407e-03 	 5 4 7 5
     -5.00774628298484149151e-04 	 5 4 7 6
      1.46295181004512829179e-03 	 5 4 7 7
     -2.25057622411404742446e-03 	 5 4 8 1
     -1.68513337468869490131e-04 	 5 4 8 2
      5.74818778466347642640e-04 	 5 4 8 3
     -2.33148102171400705123e-04 	 5 4 8 4
      5.37053191874526476488e-04 	 5 4 8 5
     -4.09818994430834605651e-04 	 5 4 8 6
      5.16928223313127370442e-05 	 5 4 8 7
     -5.84926912588940115661e-03 	 5 4 8 8
      3.98960060408536598686e-01 	 5 5 1 1
      3.95898616317632949524e-03 	 5 5 2 1
      4.21396800746210581368e-02 	 5 5 2 2
      1.86890040212298776112e-02 	 5 5 3 1
     -5.03567814160082918157e-03 	 5 5 3 2
      2.54112740703371475792e-01 	 5 5 3 3
     -3.37132710667872870225e-03 	 5 5 4 1
     -7.53839984658793158326e-04 	 5 5 4 2
     -2.38985041258742113290e-02 	 5 5 4 3
      2.78808584888429022985e-01 	 5 5 4 4
      5.76396534583700770327e-02 	 5 5 5 1
     -4.72941911170110251827e-02 	 5 5 5 2
     -3.44373449425516148237e-02 	 5 5 5 3
     -1.68119012393388445048e-02 	 5 5 5 4
      8.39271425518349989403e-01 	 5 5 5 5
      9.61766362643770925112e-03 	 5 5 6 1
     -4.44650753698860434077e-03 	 5 5 6 2
     -2.93923004064284357217e-02 	 5 5 6 3
     -4.43361690730186552845e-02 	 5 5 6 4
     -3.01522936697395174677e-02 	 5 5 6 5
      1.65157332356502650761e-01 	 5 5 6 6
     -8.00198937872963114021e-04 	 5 5 7 1
      6.06033561386805797594e-03 	 5 5 7 2
      7.83320564844431840856e-03 	 5 5 7 3
      9.45961978886676602141e-03 	 5 5 7 4
      4.81185409006343531302e-02 	 5 5 7 5
      1.66615623983073883607e-03 	 5 5 7 6
      9.85151338846475543853e-02 	 5 5 7 7
      4.81598717842485896101e-02 	 5 5 8 1
      1.97697130049162474869e-03 	 5 5 8 2
     -1.13179620826504047371e-02 	 5 5 8 3
      4.28955009059064223953e-03 	 5 5 8 4
     -1.47590424068081652736e-02 	 5 5 8 5
      9.62229882540130074253e-03 	 5 5 8 6
     -1.15031365345623966950e-03 	 5 5 8 7
      2.44547974804019990769e-01 	 5 5 8 8
      8.82684666775254700433e-03 	 6 1 1 1
      5.86073938932637475072e-04 	 6 1 2 1
     -3.04717406178061809771e-03 	 6 1 2 2
      6.88577692792003781888e-04 	 6 1 3 1
     -6.28904792178651894305e-04 	 6 1 3 2
      2.42448019759203617363e-03 	 6 1 3 3
      5.74537539192190209805e-04 	 6 1 4 1
     -3.45147134396830708013e-04 	 6 1 4 2
     -1.66868392481948056051e-03 	 6 1 4 3
      6.87889943363672456966e-03 	 6 1 4 4
      1.33973160000990703170e-03 	 6 1 5 1
     -1.79518481706989808423e-03 	 6 1 5 2
     -1.09230195221976739486e-03 	 6 1 5 3
     -8.92665572500479700263e-04 	 6 1 5 4
      9.61766362643773006780e-03 	 6 1 5 5
      1.63872723614804879401e-03 	 6 1 6 1
     -5.98302000007695875677e-04 	 6 1 6 2
     -2.40247543711702600533e-03 	 6 1 6 3
     -2.84000134390736697770e-03 	 6 1 6 4
     -1.33909784549773565668e-03 	 6 1 6 5
      2.60038116979566247267e-03 	 6 1 6 6
     -5.15259885221838547474e-04 	 6 1 7 1
      1.48300824573015829592e-03 	 6 1 7 2
      5.94551999336484894923e-04 	 6 1 7 3
      4.73277138984192998795e-04 	 6 1 7 4
      1.49468190136594594915e-03 	 6 1 7 5
      8.85013105096359598695e-05 	 6 1 7 6
     -9.66858075285530215760e-04 	 6 1 7 7
      1.32013204738414512140e-03 	 6 1 8 1
     -8.83020861517249506471e-05 	 6 1 8 2
     -4.45681494611219783213e-04 	 6 1 8 3
     -2.72253557977501737739e-05 	 6 1 8 4
     -2.96444006517024803964e-04 	 6 1 8 5
     -4.25020181528120029844e-04 	 6 1 8 6
      4.83421927129620422983e-05 	 6 1 8 7
      5.61914450543062656690e-03 	 6 1 8 8
     -2.42577622174955940051e-03 	 6 2 1 1
     -5.12177997823322719330e-04 	 6 2 2 1
     -2.15454301650421170891e-03 	 6 2 2 2
     -1.02518028676692107490e-03 	 6 2 3 1
      1.80258433995290185368e-03 	 6 2 3 2
     -1.04220833210834666269e-03 	 6 2 3 3
     -1.36076831198509058674e-04 	 6 2 4 1
      1.71753778455183050283e-03 	 6 2 4 2
      1.67926264358197324666e-03 	 6 2 4 3
     -6.19135035008270759316e-03 	 6 2 4 4
     -1.25956880256296310794e-03 	 6 2 5 1
      3.08609675504697674245e-03 	 6 2 5 2
      1.22420995802046089600e-03 	 6 2 5 3
      9.01711928905915430579e-04 	 6 2 5 4
     -4.44650753698859740187e-03 	 6 2 5 5
     -5.98302000007701188268e-04 	 6 2 6 1
      4.89635451474748541884e-03 	 6 2 6 2
      3.22162865883480987669e-03 	 6 2 6 3
      4.08823131752395190625e-03 	 6 2 6 4
      2.05242279161265209209e-03 	 6 2 6 5
     -5.07089541154717021731e-03 	 6 2 6 6
      2.12995543050024385093e-04 	 6 2 7 1
     -3.29107514879173335132e-03 	 6 2 7 2
     -8.25510257782168226787e-04 	 6 2 7 3
     -9.74692519098734142663e-04 	 6 2 7 4
     -1.73880040985214157252e-03 	 6 2 7 5
     -1.76682702369329439930e-03 	 6 2 7 6
     -2.42640626809036879033e-03 	 6 2 7 7
     -2.39228735484614974532e-03 	 6 2 8 1
     -1.43170329092503654730e-03 	 6 2 8 2
      4.67866168318133027540e-04 	 6 2 8 3
     -8.64780206846329341751e-04 	 6 2 8 4
      4.78783749016137077578e-04 	 6 2 8 5
     -1.58462116391457183591e-03 	 6 2 8 6
      7.05119536865551075136e-04 	 6 2 8 7
     -2.93551947783032233380e-03 	 6 2 8 8
     -2.31049368256061003757e-02 	 6 3 1 1
     -1.56273526140842723177e-03 	 6 3 2 1
      1.92490657245182432422e-02 	 6 3 2 2
     -4.87428888694773580076e-03 	 6 3 3 1
      2.81011614177555709565e-03 	 6 3 3 2
     -3.58122453799248688378e-02 	 6 3 3 3
     -8.37977182857431728176e-04 	 6 3 4 1
      7.20449858322192901970e-04 	 6 3 4 2
      6.98478868945858789863e-03 	 6 3 4 3
     -1.88809336774906563750e-02 	 6 3 4 4
     -4.56839980985636329169e-03 	 6 3 5 1
      6.15771993308805547229e-03 	 6 3 5 2
      4.56041436154323333307e-03 	 6 3 5 3
      2.41651994596331094051e-03 	 6 3 5 4
     -2.93923004064284218440e-02 	 6 3 5 5
     -2.40247543711702774005e-03 	 6 3 6 1
      3.22162865883480770829e-03 	 6 3 6 2
      1.01179184746810289092e-02 	 6 3 6 3
      1.15449955864530620642e-02 	 6 3 6 4
      4.18097521524771285201e-03 	 6 3 6 5
     -7.78969318698925251854e-03 	 6 3 6 6
      9.85810139646384891998e-04 	 6 3 7 1
     -5.46170571419457833579e-03 	 6 3 7 2
     -2.21291245914439832151e-03 	 6 3 7 3
     -1.44557783860056613193e-03 	 6 3 7 4
     -5.52522501524969726627e-03 	 6 3 7 5
     -1.37720166309582866919e-03 	 6 3 7 6
      5.06481149252821331863e-03 	 6 3 7 7
     -6.53428246795631148536e-03 	 6 3 8 1
     -6.54871006915902433183e-04 	 6 3 8 2
      1.72004181821735244000e-03 	 6 3 8 3
     -1.46539862514690746517e-03 	 6 3 8 4
      1.57681370217265079577e-03 	 6 3 8 5
     -2.07107139907710194326e-03 	 6 3 8 6
      2.53850914433703471994e-04 	 6 3 8 7
     -1.25293304425497555032e-02 	 6 3 8 8
     -2.49590387239593744506e-02 	 6 4 1 1
     -1.96247622496561980807e-03 	 6 4 2 1
      2.75222187875920343281e-02 	 6 4 2 2
     -3.99102033305637118182e-03 	 6 4 3 1
      2.40534681401149540853e-03 	 6 4 3 2
     -1.07564141072078612443e-02 	 6 4 3 3
     -1.15559701924525986064e-03 	 6 4 4 1
      7.13971062466552531915e-04 	 6 4 4 2
      7.52358332147871466250e-03 	 6 4 4 3
     -3.83378200046085443331e-02 	 6 4 4 4
     -6.57291088455878944746e-03 	 6 4 5 1
      8.34657776131400748476e-03 	 6 4 5 2
      5.08397366994360264125e-03 	 6 4 5 3
      3.25570388294341237639e-03 	 6 4 5 4
     -4.43361690730187801845e-02 	 6 4 5 5
     -2.84000134390738042181e-03 	 6 4 6 1
      4.08823131752396838612e-03 	 6 4 6 2
      1.15449955864530516558e-02 	 6 4 6 3
      2.14600750520341672367e-02 	 6 4 6 4
      5.62887982456904654993e-03 	 6 4 6 5
     -1.35757327526357662872e-02 	 6 4 6 6
      1.90673862469244517759e-03 	 6 4 7 1
     -6.61012178252166297115e-03 	 6 4 7 2
     -2.48856322052902088557e-03 	 6 4 7 3
     -2.13758168195327027256e-03 	 6 4 7 4
     -7.60883708677920558849e-03 	 6 4 7 5
     -1.86629028969519626668e-03 	 6 4 7 6
      1.04510713359956906171e-02 	 6 4 7 7
     -8.45158398786291509275e-03 	 6 4 8 1
     -5.40257395505983691215e-04 	 6 4 8 2
      2.02857920072293867672e-03 	 6 4 8 3
     -1.12309582680508181739e-03 	 6 4 8 4
      2.06771947940659296325e-03 	 6 4 8 5
     -3.17090301978632718022e-03 	 6 4 8 6
      7.40061914799285775965e-04 	 6 4 8 7
     -2.04402025917047383552e-02 	 6 4 8 8
     -1.12106053970025369704e-02 	 6 5 1 1
     -7.41948232531509759002e-04 	 6 5 2 1
      1.10999687177533740839e-02 	 6 5 2 2
     -1.61666099275927974653e-03 	 6 5 3 1
      1.11624407569812090883e-03 	 6 5 3 2
     -5.02999780250918716862e-03 	 6 5 3 3
     -3.34328589879941172683e-04 	 6 5 4 1
      7.14399825346757519871e-04 	 6 5 4 2
      2.69403244125088290467e-03 	 6 5 4 3
     -1.11768725188239811952e-02 	 6 5 4 4
     -3.17687418138895474179e-03 	 6 5 5 1
      3.65888861878699723357e-03 	 6 5 5 2