&FCI NORB=8,NELEC=0,MS2=0
ORBSYM=1,1,1,1,
ISYM=1,
/
      3.89058020364189613427e-02 	 1 1 1 1
      1.42922484077458123927e-03 	 1 2 1 1
      4.72274069682368079909e-03 	 1 3 1 1
      5.01990348613558061419e-04 	 1 4 1 1
      8.64137871071853774785e-03 	 1 5 1 1
      2.88990730900986385679e-03 	 1 6 1 1
     -1.82925033649455285462e-03 	 1 7 1 1
      9.83121004212313999437e-03 	 1 8 1 1
      1.42922484077458167295e-03 	 2 1 1 1
     -3.27233517574293600316e-02 	 2 2 1 1
     -1.56536005088150128456e-03 	 2 3 1 1
     -4.85030985793905228872e-04 	 2 4 1 1
     -7.52637990050043521190e-03 	 2 5 1 1
     -1.97958930857062729777e-03 	 2 6 1 1
      2.21188023896267326948e-03 	 2 7 1 1
     -1.68613729180228479661e-04 	 2 8 1 1
      4.72274069682368860534e-03 	 3 1 1 1
     -1.56536005088149889931e-03 	 3 2 1 1
      2.10540979272222233964e-02 	 3 3 1 1
     -7.05894141137823529636e-03 	 3 4 1 1
     -5.93140533555439487118e-03 	 3 5 1 1
     -9.83980412808753944487e-03 	 3 6 1 1
      2.46575533926337957247e-03 	 3 7 1 1
     -2.61702975961646292988e-03 	 3 8 1 1
      5.01990348613571505526e-04 	 4 1 1 1
     -4.85030985793902626787e-04 	 4 2 1 1
     -7.05894141137823529636e-03 	 4 3 1 1
      4.48046259212545802675e-02 	 4 4 1 1
     -3.72287335047670215477e-03 	 4 5 1 1
     -1.55650815473231413782e-02 	 4 6 1 1
      2.26192060414781266967e-03 	 4 7 1 1
      2.10224291315684120099e-03 	 4 8 1 1
      8.64137871071854815619e-03 	 5 1 1 1
     -7.52637990050043521190e-03 	 5 2 1 1
     -5.93140533555439053437e-03 	 5 3 1 1
     -3.72287335047670085372e-03 	 5 4 1 1
      7.79270190567779574842e-02 	 5 5 1 1
     -5.79144263837089862124e-03 	 5 6 1 1
      8.07836368044446799519e-03 	 5 7 1 1
     -2.79096282118451288062e-03 	 5 8 1 1
      2.88990730900985865262e-03 	 6 1 1 1
     -1.97958930857062859882e-03 	 6 2 1 1
     -9.83980412808753944487e-03 	 6 3 1 1
     -1.55650815473231587255e-02 	 6 4 1 1
     -5.79144263837089862124e-03 	 6 5 1 1
      1.59680516973514097234e-02 	 6 6 1 1
      1.41067917433533888613e-03 	 6 7 1 1
      2.41038493660020213330e-03 	 6 8 1 1
     -1.82925033649455762511e-03 	 7 1 1 1
      2.21188023896267413684e-03 	 7 2 1 1
      2.46575533926337740406e-03 	 7 3 1 1
      2.26192060414781093494e-03 	 7 4 1 1
      8.07836368044446105630e-03 	 7 5 1 1
      1.41067917433533953665e-03 	 7 6 1 1
     -1.81221419021199876831e-02 	 7 7 1 1
      6.11462861105160492177e-04 	 7 8 1 1
      9.83121004212316774995e-03 	 8 1 1 1
     -1.68613729180226528098e-04 	 8 2 1 1
     -2.61702975961646553196e-03 	 8 3 1 1
      2.10224291315686852288e-03 	 8 4 1 1
     -2.79096282118451331430e-03 	 8 5 1 1
      2.41038493660019606177e-03 	 8 6 1 1
      6.11462861105164937406e-04 	 8 7 1 1
      2.21623215236642114034e-02 	 8 8 1 1
      0.00000000000000000000e+00 	 0 0 0 0
