
Host: CHEM9LYY31VAWS

Timers On : Wed Apr 15 12:12:46 2026
Timers Off: Wed Apr 15 12:12:46 2026

Wall Time:        0.36 seconds

                                                       Time (seconds)
Module                                       User      System        Wall        Calls

--------------------------------------------------------------------------------------

**************************************************************************************

Host: CHEM9LYY31VAWS

Timers On : Wed Apr 15 12:12:46 2026
Timers Off: Wed Apr 15 12:12:46 2026

Wall Time:        0.36 seconds

                                                       Time (seconds)
Module                                       User      System        Wall        Calls

--------------------------------------------------------------------------------------

**************************************************************************************

Host: CHEM9LYY31VAWS

Timers On : Wed Apr 15 12:12:46 2026
Timers Off: Wed Apr 15 12:12:46 2026

Wall Time:        0.36 seconds

                                                       Time (seconds)
Module                                       User      System        Wall        Calls

--------------------------------------------------------------------------------------

**************************************************************************************

Host: CHEM9LYY31VAWS

Timers On : Wed Apr 15 12:12:46 2026
Timers Off: Wed Apr 15 12:12:46 2026

Wall Time:        0.36 seconds

                                                       Time (seconds)
Module                                       User      System        Wall        Calls

--------------------------------------------------------------------------------------

**************************************************************************************

Host: CHEM9LYY31VAWS

Timers On : Wed Apr 15 12:12:45 2026
Timers Off: Wed Apr 15 12:12:46 2026

Wall Time:        1.05 seconds

                                                       Time (seconds)
Module                                       User      System        Wall        Calls

--------------------------------------------------------------------------------------

**************************************************************************************

Host: CHEM9LYY31VAWS

Timers On : Wed Apr 15 12:15:17 2026
Timers Off: Wed Apr 15 12:15:18 2026

Wall Time:        0.36 seconds

                                                       Time (seconds)
Module                                       User      System        Wall        Calls

--------------------------------------------------------------------------------------

**************************************************************************************

Host: CHEM9LYY31VAWS

Timers On : Wed Apr 15 12:15:17 2026
Timers Off: Wed Apr 15 12:15:18 2026

Wall Time:        0.36 seconds

                                                       Time (seconds)
Module                                       User      System        Wall        Calls

--------------------------------------------------------------------------------------

**************************************************************************************

Host: CHEM9LYY31VAWS

Timers On : Wed Apr 15 12:15:17 2026
Timers Off: Wed Apr 15 12:15:18 2026

Wall Time:        0.35 seconds

                                                       Time (seconds)
Module                                       User      System        Wall        Calls

--------------------------------------------------------------------------------------

**************************************************************************************

Host: CHEM9LYY31VAWS

Timers On : Wed Apr 15 12:15:17 2026
Timers Off: Wed Apr 15 12:15:18 2026

Wall Time:        0.36 seconds

                                                       Time (seconds)
Module                                       User      System        Wall        Calls

--------------------------------------------------------------------------------------

**************************************************************************************

Host: CHEM9LYY31VAWS

Timers On : Wed Apr 15 12:15:17 2026
Timers Off: Wed Apr 15 12:15:18 2026

Wall Time:        1.03 seconds

                                                       Time (seconds)
Module                                       User      System        Wall        Calls

--------------------------------------------------------------------------------------

**************************************************************************************

Host: CHEM9LYY31VAWS

Timers On : Wed Apr 15 12:19:38 2026
Timers Off: Wed Apr 15 12:19:39 2026

Wall Time:        0.28 seconds

                                                       Time (seconds)
Module                                       User      System        Wall        Calls

--------------------------------------------------------------------------------------

**************************************************************************************

Host: CHEM9LYY31VAWS

Timers On : Wed Apr 15 12:19:39 2026
Timers Off: Wed Apr 15 12:19:39 2026

Wall Time:        0.30 seconds

                                                       Time (seconds)
Module                                       User      System        Wall        Calls

--------------------------------------------------------------------------------------

**************************************************************************************

Host: CHEM9LYY31VAWS

Timers On : Wed Apr 15 12:19:39 2026
Timers Off: Wed Apr 15 12:19:39 2026

Wall Time:        0.27 seconds

                                                       Time (seconds)
Module                                       User      System        Wall        Calls

--------------------------------------------------------------------------------------

**************************************************************************************

Host: CHEM9LYY31VAWS

Timers On : Wed Apr 15 12:19:40 2026
Timers Off: Wed Apr 15 12:19:40 2026

Wall Time:        0.27 seconds

                                                       Time (seconds)
Module                                       User      System        Wall        Calls

--------------------------------------------------------------------------------------

**************************************************************************************



Host: CHEM9LYY31VAWS
Host: CHEM9LYY31VAWS


Host: CHEM9LYY31VAWS
Timers On : Wed Apr 15 12:18:07 2026

Timers On : Wed Apr 15 12:18:07 2026
Timers Off: Wed Apr 15 12:25:06 2026
Timers On : Wed Apr 15 12:18:07 2026
Timers Off: Wed Apr 15 12:25:06 2026
Timers Off: Wed Apr 15 12:25:06 2026

Wall Time:      418.56 seconds


Wall Time:      418.67 seconds


Wall Time:      418.62 seconds

                                                       Time (seconds)
                                                       Time (seconds)

Module                                       User      System        Wall        Calls
Module                                       User      System        Wall        Calls
                                                       Time (seconds)
Host: CHEM9LYY31VAWS
V: Grid                             :     13.133u      0.450s      8.152w      9 calls
Module                                       User      System        Wall        Calls

V: Grid                             :     12.983u      0.400s      8.023w      9 calls
build grid                          :     11.283u      0.217s      6.910w      9 calls
Timers On : Wed Apr 15 12:18:07 2026
V: Grid                             :     12.817u      0.417s      7.926w      9 calls
build grid                          :     11.133u      0.200s      6.791w      9 calls
post-process grid                   :      1.850u      0.233s      1.241w      9 calls
build grid                          :     10.883u      0.200s      6.685w      9 calls
DFH: sparsity prep                  :      0.350u      0.017s      0.208w      6 calls
Timers Off: Wed Apr 15 12:25:06 2026
Libint2ERI::Libint2ERI              :      0.650u      0.017s      0.402w     30 calls
post-process grid                   :      1.850u      0.200s      1.231w      9 calls

Wall Time:      418.61 seconds

post-process grid                   :      1.933u      0.217s      1.240w      9 calls
                                                       Time (seconds)
DFH: sparsity prep                  :      0.350u      0.017s      0.207w      6 calls
DFH: sparsity prep                  :      0.333u      0.017s      0.219w      6 calls
Module                                       User      System        Wall        Calls
Libint2ERI::Libint2ERI              :      0.683u      0.017s      0.401w     30 calls
Libint2ERI::Libint2ERI              :      0.717u      0.050s      0.424w     30 calls
DFH: initialize()                   :     30.917u      1.767s     16.594w      6 calls
V: Grid                             :     12.833u      0.350s      7.913w      9 calls
DFH: initialize()                   :     31.333u      1.767s     16.866w      6 calls
DFH: initialize()                   :     29.833u      1.583s     16.213w      6 calls
Libint2ErfERI::Libint2ErfERI        :      0.417u      0.000s      0.243w      9 calls
Libint2ErfERI::Libint2ErfERI        :      0.417u      0.000s      0.256w      9 calls
build grid                          :     11.000u      0.200s      6.727w      9 calls
Libint2ErfERI::Libint2ErfERI        :      0.417u      0.000s      0.241w      9 calls
DFH: AO Construction                :      4.433u      0.100s      2.765w     12 calls
DFH: AO Construction                :      4.500u      0.083s      2.789w     12 calls
post-process grid                   :      1.817u      0.150s      1.185w      9 calls
DFH: AO Construction                :      4.567u      0.150s      2.844w     12 calls
DFH: AO-Met. Contraction            :      7.900u      0.567s      2.277w     24 calls
DFH: AO-Met. Contraction            :      7.800u      0.517s      2.228w     24 calls
DFH: sparsity prep                  :      0.333u      0.000s      0.204w      6 calls
DFH: AO-Met. Contraction            :      6.933u      0.517s      2.019w     24 calls
DFH: wAO Construction               :      5.067u      0.067s      3.085w     12 calls
Libint2ERI::Libint2ERI              :      0.617u      0.017s      0.397w     30 calls
DFH: wAO Copy                       :      0.800u      0.050s      0.513w     12 calls
DFH: wAO Construction               :      5.117u      0.050s      3.108w     12 calls
DFH: initialize()                   :     30.833u      1.667s     16.645w      6 calls
HF: Form core H                     :      0.117u      0.000s      0.075w      6 calls
DFH: wAO Construction               :      5.067u      0.067s      3.090w     12 calls
DFH: wAO Copy                       :      0.833u      0.033s      0.519w     12 calls
Libint2ErfERI::Libint2ErfERI        :      0.417u      0.000s      0.238w      9 calls
HF: Form S/X                        :      0.100u      0.000s      0.069w      6 calls
DFH: wAO Copy                       :      0.817u      0.050s      0.525w     12 calls
HF: Form core H                     :      0.117u      0.017s      0.074w      6 calls
DFH: AO Construction                :      4.617u      0.183s      2.870w     12 calls
HF: Guess                           :      0.317u      0.083s      0.243w      6 calls
HF: Form core H                     :      0.117u      0.000s      0.075w      6 calls
HF: Form S/X                        :      0.117u      0.017s      0.067w      6 calls
DFH: AO-Met. Contraction            :      7.483u      0.417s      2.127w     24 calls
SAD Guess                           :      0.317u      0.083s      0.239w      6 calls
HF: Guess                           :      0.350u      0.067s      0.252w      6 calls
DFH: wAO Construction               :      5.067u      0.050s      3.093w     12 calls
HF: Form G                          :    402.967u     14.133s    240.940w    134 calls
SAD Guess                           :      0.333u      0.067s      0.248w      6 calls
DFH: wAO Copy                       :      0.783u      0.050s      0.514w     12 calls
RV: Form V                          :    535.967u     12.417s    329.498w    199 calls
HF: Form G                          :    403.483u     14.217s    241.213w    134 calls
HF: Form S/X                        :      0.100u      0.017s      0.063w      6 calls
HF: Form core H                     :      0.117u      0.000s      0.075w      6 calls
Properties                          :    338.150u      4.300s    206.260w 1124020 calls
RV: Form V                          :    536.117u     12.367s    329.477w    199 calls
HF: Guess                           :      0.333u      0.100s      0.228w      6 calls
Functional                          :     72.817u      1.583s     44.604w 1124020 calls
HF: Form S/X                        :      0.100u      0.000s      0.067w      6 calls
Properties                          :    337.600u      3.950s    206.110w 1124020 calls
SAD Guess                           :      0.333u      0.100s      0.225w      6 calls
V_xc                                :    122.700u      2.267s     75.572w 1124020 calls
HF: Guess                           :      0.317u      0.083s      0.226w      6 calls
Functional                          :     72.050u      2.033s     44.660w 1124020 calls
HF: Form G                          :    403.117u     14.317s    241.307w    134 calls
SAD Guess                           :      0.317u      0.083s      0.223w      6 calls
V_xc                                :    124.000u      2.283s     75.646w 1124020 calls
RV: Form V                          :    537.817u     12.200s    330.531w    199 calls
JK: D                               :      0.017u      0.017s      0.030w    199 calls
HF: Form G                          :    404.400u     14.300s    241.979w    134 calls
Properties                          :    340.583u      4.367s    207.006w 1124020 calls
JK: USO2AO                          :      0.000u      0.033s      0.025w    199 calls
JK: D                               :      0.017u      0.017s      0.027w    199 calls
RV: Form V                          :    538.650u     12.433s    331.231w    199 calls
Functional                          :     73.233u      1.717s     44.701w 1124020 calls
JK: JK                              :     92.483u     10.000s     47.742w    199 calls
Properties                          :    337.783u      4.400s    207.313w 1124020 calls
JK: USO2AO                          :      0.000u      0.000s      0.014w    199 calls
V_xc                                :    121.383u      2.233s     75.738w 1124020 calls
DFH: compute_JK()                   :     22.750u      2.383s      9.784w    134 calls
Functional                          :     72.583u      1.783s     44.809w 1124020 calls
JK: JK                              :     92.400u      9.433s     47.413w    199 calls
JK: D                               :      0.000u      0.050s      0.035w    199 calls
DFH: Grabbing AOs                   :      0.000u      0.000s      0.000w    134 calls
V_xc                                :    126.117u      2.317s     76.030w 1124020 calls
DFH: compute_JK()                   :     22.833u      2.383s      9.771w    134 calls
JK: USO2AO                          :      0.000u      0.017s      0.021w    199 calls
DFH: compute_J                      :      4.000u      0.550s      2.124w    134 calls
DFH: Grabbing AOs                   :      0.000u      0.000s      0.000w    134 calls
JK: D                               :      0.000u      0.017s      0.026w    199 calls
JK: JK                              :     91.583u      9.317s     47.071w    199 calls
DFH: compute_K                      :     18.233u      0.300s      6.434w    134 calls
JK: USO2AO                          :      0.000u      0.050s      0.011w    199 calls
DFH: compute_J                      :      4.100u      0.650s      2.141w    134 calls
DFH: compute_JK()                   :     22.967u      2.467s      9.758w    134 calls
DFH: compute_wK()                   :     25.717u      3.283s     13.123w    134 calls
JK: JK                              :     91.417u      9.233s     46.792w    199 calls
DFH: compute_K                      :     18.317u      0.200s      6.433w    134 calls
JK: AO2USO                          :      0.000u      0.000s      0.000w    199 calls
DFH: compute_JK()                   :     22.633u      2.417s      9.694w    134 calls
DFH: Grabbing AOs                   :      0.000u      0.000s      0.000w    134 calls
DFH: Grabbing AOs                   :      0.000u      0.000s      0.000w    134 calls
HF: Form F                          :      0.000u      0.000s      0.004w    134 calls
DFH: compute_J                      :      3.983u      0.400s      2.129w    134 calls
DFH: compute_wK()                   :     25.500u      3.317s     13.111w    134 calls
HF: Form D                          :      0.000u      0.033s      0.011w    134 calls
JK: AO2USO                          :      0.000u      0.000s      0.000w    199 calls
DFH: compute_J                      :      4.067u      0.617s      2.114w    134 calls
DFH: compute_K                      :     18.433u      0.333s      6.420w    134 calls
HF: DIIS                            :      0.483u      0.417s      0.595w    128 calls
HF: Form F                          :      0.000u      0.000s      0.004w    134 calls
DFH: compute_wK()                   :     25.083u      3.200s     12.976w    134 calls
DFH: compute_K                      :     18.167u      0.250s      6.380w    134 calls
HF: Form C                          :      2.083u      0.083s      1.269w    128 calls
HF: Form D                          :      0.000u      0.000s      0.012w    134 calls
JK: AO2USO                          :      0.000u      0.000s      0.000w    199 calls
DFH: compute_wK()                   :     25.600u      3.367s     13.124w    134 calls
JK: (A|mn)                          :      2.200u      0.033s      1.346w      3 calls
HF: DIIS                            :      0.667u      0.367s      0.602w    128 calls
JK: AO2USO                          :      0.000u      0.000s      0.000w    199 calls
JK: (A|Q)^-1/2                      :      2.950u      0.083s      1.752w      3 calls
HF: Form F                          :      0.000u      0.000s      0.004w    134 calls
HF: Form C                          :      2.017u      0.117s      1.265w    128 calls
HF: Form F                          :      0.000u      0.000s      0.004w    134 calls
JK: (Q|mn)                          :      0.967u      0.033s      0.189w      3 calls
HF: Form D                          :      0.000u      0.033s      0.011w    134 calls
JK: (A|mn)                          :      2.167u      0.050s      1.325w      3 calls
HF: Form D                          :      0.000u      0.000s      0.013w    134 calls
JK: (A|mn)^L                        :      2.383u      0.050s      1.452w      3 calls
JK: (A|Q)^-1/2                      :      2.967u      0.050s      1.747w      3 calls
HF: DIIS                            :      0.717u      0.400s      0.577w    128 calls
JK: (A|Q)^-1                        :      3.083u      0.083s      1.821w      3 calls
HF: DIIS                            :      0.583u      0.383s      0.565w    128 calls
JK: (Q|mn)                          :      1.017u      0.033s      0.179w      3 calls
HF: Form C                          :      2.067u      0.117s      1.258w    128 calls
JK: (Q|mn)^L                        :      0.933u      0.000s      0.159w      3 calls
HF: Form C                          :      2.067u      0.083s      1.260w    128 calls
JK: (A|mn)^L                        :      2.400u      0.017s      1.460w      3 calls
JK: (A|mn)^R                        :      2.667u      0.017s      1.620w      3 calls
JK: (A|mn)                          :      2.183u      0.067s      1.340w      3 calls
JK: (A|mn)                          :      2.217u      0.050s      1.368w      3 calls
JK: (A|Q)^-1                        :      3.233u      0.083s      1.890w      3 calls
JK: (A|Q)^-1/2                      :      3.083u      0.067s      1.828w      3 calls
JK: (Q|mn)^L                        :      1.267u      0.017s      0.235w      3 calls
JK: (Q|mn)                          :      1.017u      0.067s      0.205w      3 calls
JK: J                               :      1.517u      0.000s      0.968w     65 calls
JK: (A|Q)^-1/2                      :      3.000u      0.033s      1.754w      3 calls
JK: (A|mn)^R                        :      2.683u      0.017s      1.621w      3 calls
JK: (A|mn)^L                        :      2.433u      0.050s      1.503w      3 calls
JK: J1                              :      0.383u      0.000s      0.252w     65 calls
JK: (Q|mn)                          :      1.067u      0.050s      0.212w      3 calls
JK: J                               :      1.667u      0.000s      0.993w     65 calls
JK: (A|Q)^-1                        :      3.017u      0.067s      1.780w      3 calls
JK: (A|mn)^L                        :      2.400u      0.017s      1.458w      3 calls
JK: J2                              :      1.133u      0.000s      0.711w     65 calls
JK: J1                              :      0.467u      0.000s      0.260w     65 calls
JK: (Q|mn)^L                        :      0.967u      0.017s      0.174w      3 calls
JK: (A|Q)^-1                        :      2.983u      0.100s      1.747w      3 calls
JK: K                               :     16.350u      0.983s      8.355w     65 calls
JK: J2                              :      1.183u      0.000s      0.728w     65 calls
JK: (A|mn)^R                        :      2.683u      0.017s      1.624w      3 calls
JK: (Q|mn)^L                        :      1.033u      0.017s      0.218w      3 calls
JK: K1                              :     11.733u      0.767s      7.488w     65 calls
JK: K                               :     16.150u      0.950s      8.228w     65 calls
JK: J                               :      1.617u      0.000s      0.975w     65 calls
JK: K2                              :      4.617u      0.133s      0.838w     65 calls
JK: (A|mn)^R                        :      2.650u      0.017s      1.604w      3 calls
JK: K1                              :     11.617u      0.750s      7.379w     65 calls
JK: J1                              :      0.417u      0.000s      0.255w     65 calls
JK: wK                              :     25.700u      2.217s     14.652w    130 calls
JK: J                               :      1.633u      0.000s      0.983w     65 calls
JK: K2                              :      4.533u      0.150s      0.827w     65 calls
JK: J2                              :      1.200u      0.000s      0.716w     65 calls
JK: wK1                             :     20.767u      1.783s     13.653w    260 calls
JK: J1                              :      0.433u      0.000s      0.258w     65 calls
JK: wK                              :     25.900u      1.950s     14.452w    130 calls
JK: J2                              :      1.200u      0.000s      0.720w     65 calls
JK: K                               :     16.033u      0.833s      8.200w     65 calls
JK: wK2                             :      4.933u      0.300s      0.934w    130 calls
JK: wK1                             :     20.900u      1.600s     13.460w    260 calls
JK: K                               :     16.250u      0.917s      8.233w     65 calls
JK: K1                              :     11.533u      0.750s      7.347w     65 calls

--------------------------------------------------------------------------------------
JK: wK2                             :      5.000u      0.267s      0.945w    130 calls
V: Grid                             :     13.133u      0.450s      8.152w      9 calls
JK: K2                              :      4.500u      0.067s      0.832w     65 calls
JK: K1                              :     11.583u      0.717s      7.379w     65 calls

--------------------------------------------------------------------------------------
JK: wK                              :     25.067u      1.550s     13.932w    130 calls
JK: K2                              :      4.650u      0.167s      0.834w     65 calls
| V: Grid                             :     12.983u      0.400s      8.023w      9 calls
JK: wK                              :     25.283u      1.800s     14.250w    130 calls
JK: wK1                             :     20.483u      1.350s     13.033w    260 calls
build grid                        :     11.283u      0.217s      6.910w      9 calls
| JK: wK1                             :     20.517u      1.567s     13.307w    260 calls
JK: wK2                             :      4.583u      0.183s      0.862w    130 calls
| build grid                        :     11.133u      0.200s      6.791w      9 calls
JK: wK2                             :      4.767u      0.200s      0.887w    130 calls

--------------------------------------------------------------------------------------
post-process grid                 :      1.850u      0.233s      1.241w      9 calls
| V: Grid                             :     12.833u      0.350s      7.913w      9 calls
DFH: sparsity prep                  :      0.350u      0.017s      0.208w      6 calls

--------------------------------------------------------------------------------------
post-process grid                 :      1.850u      0.200s      1.231w      9 calls
| | V: Grid                             :     12.817u      0.417s      7.926w      9 calls
DFH: sparsity prep                  :      0.350u      0.017s      0.207w      6 calls
build grid                        :     11.000u      0.200s      6.727w      9 calls
Libint2ERI::Libint2ERI            :      0.217u      0.017s      0.139w      6 calls
| | DFH: initialize()                   :     30.917u      1.767s     16.594w      6 calls
| build grid                        :     10.883u      0.200s      6.685w      9 calls
Libint2ERI::Libint2ERI            :      0.233u      0.017s      0.137w      6 calls
| post-process grid                 :      1.817u      0.150s      1.185w      9 calls
| DFH: initialize()                   :     29.833u      1.583s     16.213w      6 calls
Libint2ERI::Libint2ERI            :      0.233u      0.000s      0.132w     12 calls
DFH: sparsity prep                  :      0.333u      0.000s      0.204w      6 calls
post-process grid                 :      1.933u      0.217s      1.240w      9 calls
| | | DFH: sparsity prep                  :      0.333u      0.017s      0.219w      6 calls
Libint2ERI::Libint2ERI            :      0.233u      0.000s      0.131w     12 calls
| Libint2ERI::Libint2ERI            :      0.217u      0.000s      0.136w      6 calls
Libint2ErfERI::Libint2ErfERI      :      0.267u      0.000s      0.163w      6 calls
| DFH: initialize()                   :     30.833u      1.667s     16.645w      6 calls
| Libint2ERI::Libint2ERI            :      0.233u      0.017s      0.145w      6 calls
Libint2ErfERI::Libint2ErfERI      :      0.267u      0.000s      0.159w      6 calls
DFH: initialize()                   :     31.333u      1.767s     16.866w      6 calls
DFH: AO Construction              :      4.433u      0.100s      2.765w     12 calls
| | | Libint2ERI::Libint2ERI            :      0.200u      0.000s      0.130w     12 calls
| DFH: AO Construction              :      4.500u      0.083s      2.789w     12 calls
| DFH: AO-Met. Contraction          :      7.900u      0.567s      2.277w     24 calls
Libint2ERI::Libint2ERI            :      0.250u      0.017s      0.138w     12 calls
| Libint2ErfERI::Libint2ErfERI      :      0.283u      0.000s      0.158w      6 calls
| DFH: AO-Met. Contraction          :      6.933u      0.517s      2.019w     24 calls
| DFH: wAO Construction             :      5.067u      0.067s      3.085w     12 calls
| | DFH: AO Construction              :      4.617u      0.183s      2.870w     12 calls
| Libint2ErfERI::Libint2ErfERI      :      0.283u      0.000s      0.170w      6 calls
DFH: wAO Construction             :      5.117u      0.050s      3.108w     12 calls
| | DFH: wAO Copy                     :      0.800u      0.050s      0.513w     12 calls
| DFH: AO Construction              :      4.567u      0.150s      2.844w     12 calls
HF: Form core H                     :      0.117u      0.000s      0.075w      6 calls
| DFH: AO-Met. Contraction          :      7.483u      0.417s      2.127w     24 calls
DFH: wAO Copy                     :      0.833u      0.033s      0.519w     12 calls
DFH: AO-Met. Contraction          :      7.800u      0.517s      2.228w     24 calls
| HF: Form S/X                        :      0.100u      0.000s      0.069w      6 calls
HF: Form core H                     :      0.117u      0.017s      0.074w      6 calls
DFH: wAO Construction             :      5.067u      0.050s      3.093w     12 calls
HF: Guess                           :      0.317u      0.083s      0.243w      6 calls
| HF: Form S/X                        :      0.117u      0.017s      0.067w      6 calls
| | DFH: wAO Construction             :      5.067u      0.067s      3.090w     12 calls
HF: Guess                           :      0.350u      0.067s      0.252w      6 calls
SAD Guess                         :      0.317u      0.083s      0.239w      6 calls
| DFH: wAO Copy                     :      0.783u      0.050s      0.514w     12 calls
| HF: Form G                          :    402.967u     14.133s    240.940w    134 calls
DFH: wAO Copy                     :      0.817u      0.050s      0.525w     12 calls
HF: Form core H                     :      0.117u      0.000s      0.075w      6 calls
SAD Guess                         :      0.333u      0.067s      0.248w      6 calls
HF: Form S/X                        :      0.100u      0.000s      0.067w      6 calls
| HF: Form core H                     :      0.117u      0.000s      0.075w      6 calls
HF: Form G                          :    403.483u     14.217s    241.213w    134 calls
HF: Guess                           :      0.317u      0.083s      0.226w      6 calls
HF: Form S/X                        :      0.100u      0.017s      0.063w      6 calls
RV: Form V                        :    354.483u      8.300s    217.917w    134 calls
| | | | HF: Guess                           :      0.333u      0.100s      0.228w      6 calls
RV: Form V                        :    355.083u      8.417s    218.246w    134 calls
Properties                      :    221.567u      2.900s    134.768w 756878 calls
| SAD Guess                         :      0.317u      0.083s      0.223w      6 calls
| | | | HF: Form G                          :    404.400u     14.300s    241.979w    134 calls
SAD Guess                         :      0.333u      0.100s      0.225w      6 calls
Properties                      :    221.183u      2.800s    134.954w 756878 calls
Functional                      :     48.733u      1.017s     30.042w 756878 calls
| HF: Form G                          :    403.117u     14.317s    241.307w    134 calls
| | | | RV: Form V                        :    356.117u      8.417s    219.076w    134 calls
| Functional                      :     48.067u      1.417s     30.122w 756878 calls
| | V_xc                            :     82.583u      1.500s     51.028w 756878 calls
RV: Form V                        :    355.017u      8.467s    218.461w    134 calls
| | Properties                      :    220.417u      2.950s    135.504w 756878 calls
| | | V_xc                            :     84.217u      1.550s     51.089w 756878 calls
Properties                      :    222.183u      2.933s    135.207w 756878 calls
| | JK: D                             :      0.017u      0.017s      0.026w    134 calls
| | | Functional                      :     49.300u      1.250s     30.194w 756878 calls
| JK: D                             :      0.017u      0.017s      0.023w    134 calls
Functional                      :     49.617u      1.200s     30.108w 756878 calls
| | JK: USO2AO                        :      0.000u      0.033s      0.016w    134 calls
| | | V_xc                            :     85.050u      1.650s     51.279w 756878 calls
| JK: USO2AO                        :      0.000u      0.000s      0.006w    134 calls
V_xc                            :     81.467u      1.550s     51.043w 756878 calls
| JK: JK                            :     48.467u      5.667s     22.916w    134 calls
JK: D                             :      0.000u      0.017s      0.023w    134 calls
| | | | | JK: D                             :      0.000u      0.050s      0.030w    134 calls
JK: JK                            :     48.350u      5.700s     22.890w    134 calls
DFH: compute_JK()               :     22.750u      2.383s      9.784w    134 calls
JK: USO2AO                        :      0.000u      0.050s      0.006w    134 calls
| | | | | | | DFH: Grabbing AOs             :      0.000u      0.000s      0.000w    134 calls
JK: JK                            :     48.283u      5.783s     22.827w    134 calls
JK: USO2AO                        :      0.000u      0.017s      0.016w    134 calls
DFH: compute_JK()               :     22.833u      2.383s      9.771w    134 calls
| | | | | | | | | DFH: compute_JK()               :     22.633u      2.417s      9.694w    134 calls
DFH: compute_J                :      4.000u      0.550s      2.124w    134 calls
JK: JK                            :     48.083u      5.683s     22.742w    134 calls
| | | DFH: Grabbing AOs             :      0.000u      0.000s      0.000w    134 calls
| | | | | DFH: Grabbing AOs             :      0.000u      0.000s      0.000w    134 calls
| | | DFH: compute_K                :     18.233u      0.300s      6.434w    134 calls
DFH: compute_JK()               :     22.967u      2.467s      9.758w    134 calls
| | | DFH: compute_J                :      4.100u      0.650s      2.141w    134 calls
| | | | | DFH: compute_J                :      4.067u      0.617s      2.114w    134 calls
| | | DFH: Grabbing AOs             :      0.000u      0.000s      0.000w    134 calls
| | | DFH: compute_wK()               :     25.717u      3.283s     13.123w    134 calls
DFH: compute_K                :     18.317u      0.200s      6.433w    134 calls
| | | DFH: compute_K                :     18.167u      0.250s      6.380w    134 calls
| | | | | DFH: compute_J                :      3.983u      0.400s      2.129w    134 calls
JK: AO2USO                        :      0.000u      0.000s      0.000w    134 calls
DFH: compute_wK()               :     25.500u      3.317s     13.111w    134 calls
DFH: compute_wK()               :     25.600u      3.367s     13.124w    134 calls
| | | HF: Form F                          :      0.000u      0.000s      0.004w    134 calls
| | DFH: compute_K                :     18.433u      0.333s      6.420w    134 calls
HF: Form D                          :      0.000u      0.033s      0.011w    134 calls
JK: AO2USO                        :      0.000u      0.000s      0.000w    134 calls
JK: AO2USO                        :      0.000u      0.000s      0.000w    134 calls
| | HF: DIIS                            :      0.483u      0.417s      0.595w    128 calls
HF: Form F                          :      0.000u      0.000s      0.004w    134 calls
HF: Form F                          :      0.000u      0.000s      0.004w    134 calls
DFH: compute_wK()               :     25.083u      3.200s     12.976w    134 calls
HF: Form C                          :      2.083u      0.083s      1.269w    128 calls
HF: Form D                          :      0.000u      0.000s      0.012w    134 calls
HF: Form D                          :      0.000u      0.000s      0.013w    134 calls
| Libint2ERI::Libint2ERI              :      0.200u      0.000s      0.130w      6 calls
HF: DIIS                            :      0.667u      0.367s      0.602w    128 calls
HF: DIIS                            :      0.583u      0.383s      0.565w    128 calls
JK: AO2USO                        :      0.000u      0.000s      0.000w    134 calls
Libint2ErfERI::Libint2ErfERI        :      0.150u      0.000s      0.080w      3 calls
HF: Form C                          :      2.017u      0.117s      1.265w    128 calls
HF: Form C                          :      2.067u      0.083s      1.260w    128 calls
HF: Form F                          :      0.000u      0.000s      0.004w    134 calls
JK: (A|mn)                          :      2.200u      0.033s      1.346w      3 calls
Libint2ERI::Libint2ERI              :      0.217u      0.000s      0.131w      6 calls
Libint2ERI::Libint2ERI              :      0.200u      0.017s      0.131w      6 calls
HF: Form D                          :      0.000u      0.033s      0.011w    134 calls
JK: (A|Q)^-1/2                      :      2.950u      0.083s      1.752w      3 calls
Libint2ErfERI::Libint2ErfERI        :      0.150u      0.000s      0.082w      3 calls
Libint2ErfERI::Libint2ErfERI        :      0.133u      0.000s      0.080w      3 calls
HF: DIIS                            :      0.717u      0.400s      0.577w    128 calls
| JK: (A|mn)                          :      2.167u      0.050s      1.325w      3 calls
JK: (A|mn)                          :      2.183u      0.067s      1.340w      3 calls
HF: Form C                          :      2.067u      0.117s      1.258w    128 calls
Libint2ERI::Libint2ERI            :      0.000u      0.000s      0.000w      3 calls
JK: (A|Q)^-1/2                      :      2.967u      0.050s      1.747w      3 calls
JK: (A|Q)^-1/2                      :      3.083u      0.067s      1.828w      3 calls
Libint2ERI::Libint2ERI              :      0.233u      0.017s      0.141w      6 calls
JK: (Q|mn)                          :      0.967u      0.033s      0.189w      3 calls
| | Libint2ErfERI::Libint2ErfERI        :      0.133u      0.000s      0.086w      3 calls
JK: (A|mn)^L                        :      2.383u      0.050s      1.452w      3 calls
Libint2ERI::Libint2ERI            :      0.000u      0.000s      0.000w      3 calls
Libint2ERI::Libint2ERI            :      0.000u      0.000s      0.000w      3 calls
JK: (A|mn)                          :      2.217u      0.050s      1.368w      3 calls
JK: (A|Q)^-1                        :      3.083u      0.083s      1.821w      3 calls
JK: (Q|mn)                          :      1.017u      0.033s      0.179w      3 calls
JK: (Q|mn)                          :      1.017u      0.067s      0.205w      3 calls
JK: (A|Q)^-1/2                      :      3.000u      0.033s      1.754w      3 calls
| JK: (A|mn)^L                        :      2.400u      0.017s      1.460w      3 calls
JK: (A|mn)^L                        :      2.433u      0.050s      1.503w      3 calls
| Libint2ERI::Libint2ERI            :      0.000u      0.000s      0.000w      3 calls
JK: (A|Q)^-1                        :      3.233u      0.083s      1.890w      3 calls
JK: (A|Q)^-1                        :      3.017u      0.067s      1.780w      3 calls
Libint2ERI::Libint2ERI            :      0.000u      0.000s      0.000w      3 calls
JK: (Q|mn)^L                        :      0.933u      0.000s      0.159w      3 calls
| | JK: (Q|mn)                          :      1.067u      0.050s      0.212w      3 calls
JK: (A|mn)^R                        :      2.667u      0.017s      1.620w      3 calls
Libint2ERI::Libint2ERI            :      0.000u      0.000s      0.000w      3 calls
Libint2ERI::Libint2ERI            :      0.000u      0.000s      0.000w      3 calls
JK: (A|mn)^L                        :      2.400u      0.017s      1.458w      3 calls
JK: D                               :      0.000u      0.000s      0.004w     65 calls
JK: (Q|mn)^L                        :      1.267u      0.017s      0.235w      3 calls
JK: (Q|mn)^L                        :      0.967u      0.017s      0.174w      3 calls
JK: (A|Q)^-1                        :      2.983u      0.100s      1.747w      3 calls
JK: USO2AO                          :      0.000u      0.000s      0.010w     65 calls
JK: (A|mn)^R                        :      2.683u      0.017s      1.621w      3 calls
JK: (A|mn)^R                        :      2.683u      0.017s      1.624w      3 calls
| JK: JK                              :     44.017u      4.333s     24.826w     65 calls
JK: D                               :      0.000u      0.000s      0.004w     65 calls
JK: D                               :      0.000u      0.000s      0.004w     65 calls
Libint2ERI::Libint2ERI            :      0.000u      0.000s      0.000w      3 calls
| JK: USO2AO                          :      0.000u      0.000s      0.005w     65 calls
JK: USO2AO                          :      0.000u      0.000s      0.008w     65 calls
JK: (Q|mn)^L                        :      1.033u      0.017s      0.218w      3 calls
JK: J                             :      1.517u      0.000s      0.968w     65 calls
JK: JK                              :     43.133u      3.450s     23.966w     65 calls
JK: JK                              :     44.050u      3.733s     24.523w     65 calls
JK: (A|mn)^R                        :      2.650u      0.017s      1.604w      3 calls
| | | | JK: D                               :      0.000u      0.000s      0.005w     65 calls
JK: J1                          :      0.383u      0.000s      0.252w     65 calls
JK: J                             :      1.617u      0.000s      0.975w     65 calls
JK: J                             :      1.667u      0.000s      0.993w     65 calls
JK: USO2AO                          :      0.000u      0.000s      0.005w     65 calls
| | | | | | JK: JK                              :     43.500u      3.633s     24.329w     65 calls
JK: J2                          :      1.133u      0.000s      0.711w     65 calls
JK: J1                          :      0.417u      0.000s      0.255w     65 calls
JK: J1                          :      0.467u      0.000s      0.260w     65 calls
| | | | | | JK: J                             :      1.633u      0.000s      0.983w     65 calls
JK: K                             :     16.350u      0.983s      8.355w     65 calls
JK: J2                          :      1.200u      0.000s      0.716w     65 calls
JK: J2                          :      1.183u      0.000s      0.728w     65 calls
| | | | | | JK: J1                          :      0.433u      0.000s      0.258w     65 calls
JK: K1                          :     11.733u      0.767s      7.488w     65 calls
JK: K                             :     16.033u      0.833s      8.200w     65 calls
JK: K                             :     16.150u      0.950s      8.228w     65 calls
| | | | | | | | JK: J2                          :      1.200u      0.000s      0.720w     65 calls
JK: K2                          :      4.617u      0.133s      0.838w     65 calls
JK: K1                          :     11.533u      0.750s      7.347w     65 calls
JK: K1                          :     11.617u      0.750s      7.379w     65 calls
| | | | | | JK: K                             :     16.250u      0.917s      8.233w     65 calls
JK: wK                            :     25.700u      2.217s     14.652w    130 calls
JK: K2                          :      4.500u      0.067s      0.832w     65 calls
JK: K2                          :      4.533u      0.150s      0.827w     65 calls
| | | | | | JK: K1                          :     11.583u      0.717s      7.379w     65 calls
JK: wK1                         :     20.767u      1.783s     13.653w    260 calls
JK: wK                            :     25.067u      1.550s     13.932w    130 calls
JK: wK                            :     25.900u      1.950s     14.452w    130 calls
| | | | | | | | JK: K2                          :      4.650u      0.167s      0.834w     65 calls
JK: wK2                         :      4.933u      0.300s      0.934w    130 calls
JK: wK1                         :     20.483u      1.350s     13.033w    260 calls
JK: wK1                         :     20.900u      1.600s     13.460w    260 calls
| JK: AO2USO                          :      0.000u      0.000s      0.000w     65 calls
| | | | JK: wK                            :     25.283u      1.800s     14.250w    130 calls
RV: Form V                          :    181.483u      4.117s    111.582w     65 calls
JK: wK2                         :      4.583u      0.183s      0.862w    130 calls
JK: wK2                         :      5.000u      0.267s      0.945w    130 calls
| | | JK: AO2USO                          :      0.000u      0.000s      0.000w     65 calls
JK: AO2USO                          :      0.000u      0.000s      0.000w     65 calls
Properties                        :    116.583u      1.400s     71.492w 367142 calls
RV: Form V                          :    182.533u      4.017s    112.155w     65 calls
JK: wK1                         :     20.517u      1.567s     13.307w    260 calls
RV: Form V                          :    181.033u      3.950s    111.231w     65 calls
| | | | | Functional                        :     24.083u      0.567s     14.563w 367142 calls
Properties                        :    117.367u      1.450s     71.808w 367142 calls
JK: wK2                         :      4.767u      0.200s      0.887w    130 calls
Properties                        :    116.417u      1.150s     71.156w 367142 calls
| | JK: AO2USO                          :      0.000u      0.000s      0.000w     65 calls
| V_xc                              :     40.117u      0.767s     24.544w 367142 calls
Functional                        :     23.283u      0.533s     14.614w 367142 calls
RV: Form V                          :    182.800u      3.733s    112.070w     65 calls
Functional                        :     23.983u      0.617s     14.538w 367142 calls

**************************************************************************************
| | | V_xc                              :     41.067u      0.667s     24.751w 367142 calls
Properties                        :    118.400u      1.433s     71.799w 367142 calls
V_xc                              :     39.783u      0.733s     24.557w 367142 calls

**************************************************************************************
| 
**************************************************************************************
Functional                        :     23.617u      0.517s     14.593w 367142 calls
| V_xc                              :     39.917u      0.683s     24.695w 367142 calls

**************************************************************************************

Host: CHEM9LYY31VAWS

Timers On : Wed Apr 15 12:18:07 2026
Timers Off: Wed Apr 15 12:25:06 2026

Wall Time:      419.44 seconds

                                                       Time (seconds)
Module                                       User      System        Wall        Calls

--------------------------------------------------------------------------------------

**************************************************************************************

Host: CHEM9LYY31VAWS

Timers On : Wed Apr 15 12:28:48 2026
Timers Off: Wed Apr 15 12:28:49 2026

Wall Time:        0.68 seconds

                                                       Time (seconds)
Module                                       User      System        Wall        Calls

--------------------------------------------------------------------------------------

**************************************************************************************

Host: CHEM9LYY31VAWS

Timers On : Wed Apr 15 12:28:48 2026
Timers Off: Wed Apr 15 12:28:49 2026

Wall Time:        0.59 seconds

                                                       Time (seconds)
Module                                       User      System        Wall        Calls

--------------------------------------------------------------------------------------

**************************************************************************************

Host: CHEM9LYY31VAWS

Timers On : Wed Apr 15 12:28:48 2026
Timers Off: Wed Apr 15 12:28:49 2026

Wall Time:        0.54 seconds

                                                       Time (seconds)
Module                                       User      System        Wall        Calls

--------------------------------------------------------------------------------------

**************************************************************************************

Host: CHEM9LYY31VAWS

Timers On : Wed Apr 15 12:28:49 2026
Timers Off: Wed Apr 15 12:28:50 2026

Wall Time:        0.47 seconds

                                                       Time (seconds)
Module                                       User      System        Wall        Calls

--------------------------------------------------------------------------------------

**************************************************************************************

Host: CHEM9LYY31VAWS

Timers On : Wed Apr 15 12:28:49 2026
Timers Off: Wed Apr 15 12:28:50 2026

Wall Time:        0.46 seconds

                                                       Time (seconds)
Module                                       User      System        Wall        Calls

--------------------------------------------------------------------------------------

**************************************************************************************

Host: CHEM9LYY31VAWS

Timers On : Wed Apr 15 12:28:49 2026
Timers Off: Wed Apr 15 12:28:50 2026

Wall Time:        0.47 seconds

                                                       Time (seconds)
Module                                       User      System        Wall        Calls

--------------------------------------------------------------------------------------

**************************************************************************************

Host: CHEM9LYY31VAWS

Timers On : Wed Apr 15 12:28:49 2026
Timers Off: Wed Apr 15 12:28:50 2026

Wall Time:        0.43 seconds

                                                       Time (seconds)
Module                                       User      System        Wall        Calls

--------------------------------------------------------------------------------------

**************************************************************************************

Host: CHEM9LYY31VAWS

Timers On : Wed Apr 15 12:28:49 2026
Timers Off: Wed Apr 15 12:28:50 2026

Wall Time:        0.45 seconds

                                                       Time (seconds)
Module                                       User      System        Wall        Calls

--------------------------------------------------------------------------------------

**************************************************************************************

Host: CHEM9LYY31VAWS

Timers On : Wed Apr 15 12:28:51 2026
Timers Off: Wed Apr 15 12:28:52 2026

Wall Time:        0.93 seconds

                                                       Time (seconds)
Module                                       User      System        Wall        Calls

--------------------------------------------------------------------------------------

**************************************************************************************

Host: CHEM9LYY31VAWS

Timers On : Wed Apr 15 12:28:51 2026
Timers Off: Wed Apr 15 12:28:52 2026

Wall Time:        0.91 seconds

                                                       Time (seconds)
Module                                       User      System        Wall        Calls

--------------------------------------------------------------------------------------

**************************************************************************************

Host: CHEM9LYY31VAWS

Timers On : Wed Apr 15 12:28:51 2026
Timers Off: Wed Apr 15 12:28:52 2026

Wall Time:        0.93 seconds

                                                       Time (seconds)
Module                                       User      System        Wall        Calls

--------------------------------------------------------------------------------------

**************************************************************************************

Host: CHEM9LYY31VAWS

Timers On : Wed Apr 15 12:28:51 2026
Timers Off: Wed Apr 15 12:28:52 2026

Wall Time:        0.91 seconds

                                                       Time (seconds)
Module                                       User      System        Wall        Calls

--------------------------------------------------------------------------------------

**************************************************************************************

Host: CHEM9LYY31VAWS

Timers On : Wed Apr 15 12:28:51 2026
Timers Off: Wed Apr 15 12:28:52 2026

Wall Time:        0.81 seconds

                                                       Time (seconds)
Module                                       User      System        Wall        Calls

--------------------------------------------------------------------------------------

**************************************************************************************

Host: CHEM9LYY31VAWS

Timers On : Wed Apr 15 12:28:52 2026
Timers Off: Wed Apr 15 12:28:53 2026

Wall Time:        1.26 seconds

                                                       Time (seconds)
Module                                       User      System        Wall        Calls

--------------------------------------------------------------------------------------

**************************************************************************************

Host: CHEM9LYY31VAWS

Timers On : Wed Apr 15 12:28:52 2026
Timers Off: Wed Apr 15 12:28:53 2026

Wall Time:        1.29 seconds

                                                       Time (seconds)
Module                                       User      System        Wall        Calls

--------------------------------------------------------------------------------------

**************************************************************************************

Host: CHEM9LYY31VAWS

Timers On : Wed Apr 15 12:28:52 2026
Timers Off: Wed Apr 15 12:28:53 2026

Wall Time:        1.25 seconds

                                                       Time (seconds)
Module                                       User      System        Wall        Calls

--------------------------------------------------------------------------------------

**************************************************************************************

Host: CHEM9LYY31VAWS

Timers On : Wed Apr 15 12:28:52 2026
Timers Off: Wed Apr 15 12:28:53 2026

Wall Time:        1.24 seconds

                                                       Time (seconds)
Module                                       User      System        Wall        Calls

--------------------------------------------------------------------------------------

**************************************************************************************

Host: CHEM9LYY31VAWS

Timers On : Wed Apr 15 12:28:53 2026
Timers Off: Wed Apr 15 12:28:54 2026

Wall Time:        0.55 seconds

                                                       Time (seconds)
Module                                       User      System        Wall        Calls

--------------------------------------------------------------------------------------

**************************************************************************************

Host: CHEM9LYY31VAWS

Timers On : Wed Apr 15 12:28:53 2026
Timers Off: Wed Apr 15 12:28:54 2026

Wall Time:        0.58 seconds

                                                       Time (seconds)
Module                                       User      System        Wall        Calls

--------------------------------------------------------------------------------------

**************************************************************************************

Host: CHEM9LYY31VAWS

Timers On : Wed Apr 15 12:28:54 2026
Timers Off: Wed Apr 15 12:28:54 2026

Wall Time:        0.63 seconds

                                                       Time (seconds)
Module                                       User      System        Wall        Calls

--------------------------------------------------------------------------------------

**************************************************************************************

Host: CHEM9LYY31VAWS

Timers On : Wed Apr 15 12:28:54 2026
Timers Off: Wed Apr 15 12:28:55 2026

Wall Time:        0.96 seconds

                                                       Time (seconds)
Module                                       User      System        Wall        Calls

--------------------------------------------------------------------------------------

**************************************************************************************

Host: CHEM9LYY31VAWS

Timers On : Wed Apr 15 12:28:55 2026
Timers Off: Wed Apr 15 12:28:56 2026

Wall Time:        1.00 seconds

                                                       Time (seconds)
Module                                       User      System        Wall        Calls

--------------------------------------------------------------------------------------

**************************************************************************************

Host: CHEM9LYY31VAWS

Timers On : Wed Apr 15 12:28:55 2026
Timers Off: Wed Apr 15 12:28:56 2026

Wall Time:        1.17 seconds

                                                       Time (seconds)
Module                                       User      System        Wall        Calls

--------------------------------------------------------------------------------------

**************************************************************************************

Host: CHEM9LYY31VAWS

Timers On : Wed Apr 15 12:28:56 2026
Timers Off: Wed Apr 15 12:28:57 2026

Wall Time:        1.27 seconds

                                                       Time (seconds)
Module                                       User      System        Wall        Calls

--------------------------------------------------------------------------------------

**************************************************************************************




Host: CHEM9LYY31VAWS
Host: CHEM9LYY31VAWS

Host: CHEM9LYY31VAWS



Host: CHEM9LYY31VAWS
Host: CHEM9LYY31VAWS


Timers On : Wed Apr 15 12:26:05 2026
Timers On : Wed Apr 15 12:26:05 2026
Timers Off: Wed Apr 15 16:26:15 2026
Timers Off: Wed Apr 15 16:26:15 2026

Wall Time:    14409.49 seconds

Timers On : Wed Apr 15 12:26:05 2026
                                                       Time (seconds)

Wall Time:    14409.24 seconds

Timers On : Wed Apr 15 12:26:05 2026
Timers Off: Wed Apr 15 16:26:15 2026

Module                                       User      System        Wall        Calls
                                                       Time (seconds)
Timers Off: Wed Apr 15 16:26:15 2026
Host: CHEM9LYY31VAWS

Wall Time:    14409.26 seconds

Module                                       User      System        Wall        Calls


Wall Time:    14409.55 seconds

                                                       Time (seconds)
Timers On : Wed Apr 15 12:26:05 2026
Module                                       User      System        Wall        Calls
Timers Off: Wed Apr 15 16:26:15 2026
Timers On : Wed Apr 15 12:26:05 2026

Wall Time:    14409.85 seconds

Timers Off: Wed Apr 15 16:26:15 2026
                                                       Time (seconds)
V: Grid                             :    331.750u     18.567s    231.418w    162 calls
                                                       Time (seconds)
Module                                       User      System        Wall        Calls
build grid                          :    282.700u      8.267s    191.012w    162 calls
Module                                       User      System        Wall        Calls

Wall Time:    14409.57 seconds

post-process grid                   :     48.917u     10.300s     40.375w    162 calls
                                                       Time (seconds)
DFH: sparsity prep                  :      9.283u      0.167s      6.508w    108 calls
Module                                       User      System        Wall        Calls
Libint2ERI::Libint2ERI              :     18.250u      0.467s     12.593w    540 calls
DFH: initialize()                   :    908.767u     60.083s    597.100w    108 calls
V: Grid                             :    333.117u     18.517s    230.155w    162 calls
V: Grid                             :    330.833u     18.883s    231.306w    162 calls
build grid                          :    284.083u      7.983s    190.524w    162 calls
Libint2ErfERI::Libint2ErfERI        :     11.100u      0.300s      7.588w    162 calls
post-process grid                   :     49.000u     10.533s     39.599w    162 calls
build grid                          :    282.167u      8.283s    191.175w    162 calls
DFH: sparsity prep                  :      9.233u      0.267s      6.215w    108 calls
DFH: AO Construction                :    123.650u      3.333s     84.991w    216 calls
post-process grid                   :     48.667u     10.567s     40.100w    162 calls
V: Grid                             :    331.100u     17.983s    227.920w    162 calls

V: Grid                             :    331.267u     17.367s    227.639w    162 calls
V: Grid                             :    332.700u     18.050s    228.774w    162 calls
DFH: sparsity prep                  :      9.433u      0.317s      6.500w    108 calls
DFH: AO-Met. Contraction            :    274.250u     22.283s    145.892w    432 calls
build grid                          :    283.650u      7.833s    189.434w    162 calls
Libint2ERI::Libint2ERI              :     18.550u      0.650s     12.613w    540 calls
Libint2ERI::Libint2ERI              :     18.567u      0.667s     12.442w    540 calls
DFH: wAO Construction               :    126.700u      0.750s     81.117w    216 calls
post-process grid                   :     49.000u     10.200s     39.307w    162 calls
DFH: initialize()                   :    916.450u     59.083s    591.127w    108 calls
DFH: wAO Copy                       :     24.317u      4.283s     20.875w    216 calls
build grid                          :    282.300u      7.817s    188.551w    162 calls
DFH: initialize()                   :    907.533u     56.133s    582.430w    108 calls
HF: Form core H                     :      2.900u      0.283s      2.108w    108 calls
DFH: sparsity prep                  :      9.150u      0.350s      6.227w    108 calls
Libint2ErfERI::Libint2ErfERI        :     10.800u      0.233s      7.218w    162 calls
post-process grid                   :     48.700u     10.167s     39.338w    162 calls
HF: Form S/X                        :      2.900u      0.217s      2.094w    108 calls
build grid                          :    282.650u      7.767s    188.779w    162 calls
Host: CHEM9LYY31VAWS
DFH: sparsity prep                  :      9.367u      0.367s      6.335w    108 calls
HF: Guess                           :      8.933u      3.567s      9.123w    108 calls

Libint2ERI::Libint2ERI              :     18.667u      0.583s     12.471w    540 calls
SAD Guess                           :      8.767u      3.567s      8.985w    108 calls
Libint2ErfERI::Libint2ErfERI        :     10.733u      0.200s      7.251w    162 calls
post-process grid                   :     48.567u      9.600s     38.829w    162 calls
DFH: AO Construction                :    126.100u      3.633s     85.203w    216 calls
HF: Form G                          :  11739.683u    364.733s   7693.871w   2412 calls
DFH: sparsity prep                  :      9.167u      0.283s      6.292w    108 calls
Libint2ERI::Libint2ERI              :     18.250u      0.583s     12.169w    540 calls
DFH: AO Construction                :    125.600u      3.667s     86.492w    216 calls
RV: Form V                          :  16193.100u    337.950s  10762.735w   3663 calls
DFH: AO-Met. Contraction            :    272.350u     19.667s    139.648w    432 calls
Libint2ERI::Libint2ERI              :     18.083u      0.467s     12.184w    540 calls
DFH: initialize()                   :    911.467u     56.967s    592.005w    108 calls
DFH: wAO Construction               :    125.433u      0.750s     79.611w    216 calls
Properties                          :  10576.950u    107.783s   6984.302w 20689491 calls
DFH: initialize()                   :    912.217u     56.950s    588.677w    108 calls
Libint2ErfERI::Libint2ErfERI        :     10.667u      0.300s      7.155w    162 calls
DFH: AO-Met. Contraction            :    275.817u     21.817s    143.204w    432 calls
DFH: wAO Copy                       :     24.133u      3.650s     20.498w    216 calls
Functional                          :   1798.133u     40.067s   1192.756w 20689491 calls
Libint2ErfERI::Libint2ErfERI        :     10.817u      0.233s      7.448w    162 calls
DFH: wAO Construction               :    126.633u      0.750s     80.484w    216 calls
HF: Form core H                     :      3.050u      0.333s      2.174w    108 calls
V_xc                                :   3755.500u     50.250s   2494.640w 20689491 calls
DFH: wAO Copy                       :     25.233u      3.967s     19.752w    216 calls
Timers On : Wed Apr 15 12:26:05 2026
DFH: AO Construction                :    125.117u      3.350s     84.372w    216 calls
JK: D                               :      0.433u      0.650s      0.792w   3663 calls
HF: Form S/X                        :      2.783u      0.300s      2.143w    108 calls
HF: Form core H                     :      3.167u      0.233s      2.226w    108 calls
DFH: AO Construction                :    125.717u      3.500s     84.946w    216 calls
DFH: AO-Met. Contraction            :    275.200u     20.600s    144.317w    432 calls
HF: Guess                           :      8.817u      3.983s      9.119w    108 calls
DFH: initialize()                   :    909.067u     58.083s    588.592w    108 calls
HF: Form S/X                        :      3.167u      0.450s      2.377w    108 calls
SAD Guess                           :      8.717u      3.950s      9.000w    108 calls
Timers Off: Wed Apr 15 16:26:15 2026
DFH: wAO Construction               :    126.350u      0.850s     80.071w    216 calls
Libint2ErfERI::Libint2ErfERI        :     11.133u      0.283s      7.438w    162 calls
HF: Guess                           :      8.817u      3.850s      9.943w    108 calls

Wall Time:    14409.59 seconds

DFH: wAO Copy                       :     24.700u      3.683s     20.315w    216 calls
HF: Form G                          :  11720.167u    366.267s   7693.471w   2412 calls
SAD Guess                           :      8.717u      3.850s      9.819w    108 calls
DFH: AO-Met. Contraction            :    272.767u     20.800s    144.283w    432 calls
DFH: AO Construction                :    124.867u      3.350s     84.846w    216 calls
HF: Form core H                     :      2.933u      0.300s      2.105w    108 calls
JK: USO2AO                          :      0.033u      0.633s      0.608w   3663 calls

RV: Form V                          :  16216.200u    339.450s  10778.122w   3670 calls
JK: JK                              :   3082.750u    294.550s   1869.015w   3663 calls
Host: CHEM9LYY31VAWS
                                                       Time (seconds)
DFH: AO-Met. Contraction            :    271.983u     20.733s    141.235w    432 calls


Module                                       User      System        Wall        Calls
Properties                          :  10590.017u    109.450s   6993.840w 20729067 calls
DFH: wAO Construction               :    127.217u      0.817s     81.732w    216 calls
DFH: compute_JK()                   :    639.000u     58.967s    360.500w   2412 calls
HF: Form G                          :  11744.483u    365.867s   7704.809w   2412 calls
Timers On : Wed Apr 15 12:26:05 2026
DFH: wAO Copy                       :     24.367u      3.650s     20.003w    216 calls
HF: Form S/X                        :      2.900u      0.233s      2.082w    108 calls
Timers Off: Wed Apr 15 16:26:15 2026
HF: Form core H                     :      3.083u      0.250s      2.300w    108 calls
V: Grid                             :    330.633u     18.283s    228.870w    162 calls
DFH: Grabbing AOs                   :      0.017u      0.033s      0.004w   2412 calls
HF: Guess                           :      8.817u      3.683s      9.102w    108 calls
Host: CHEM9LYY31VAWS

Wall Time:    14409.29 seconds

RV: Form V                          :  16188.567u    332.783s  10755.138w   3662 calls
build grid                          :    281.483u      7.983s    189.167w    162 calls

                                                       Time (seconds)
Properties                          :  10574.383u    106.017s   6979.597w 20683894 calls
SAD Guess                           :      8.733u      3.683s      8.988w    108 calls
HF: Form S/X                        :      2.900u      0.383s      2.093w    108 calls
Functional                          :   1793.467u     39.217s   1193.512w 20683894 calls

post-process grid                   :     49.083u     10.300s     39.671w    162 calls
HF: Form G                          :  11724.967u    364.233s   7697.008w   2412 calls
HF: Guess                           :      8.900u      3.667s      8.913w    108 calls
RV: Form V                          :  16225.000u    334.550s  10783.407w   3670 calls
DFH: compute_J                      :    127.867u     13.000s    106.891w   2412 calls
Properties                          :  10580.700u    105.783s   6998.029w 20729006 calls
Host: CHEM9LYY31VAWS
SAD Guess                           :      8.750u      3.650s      8.794w    108 calls
Module                                       User      System        Wall        Calls

HF: Form G                          :  11725.267u    359.200s   7689.851w   2412 calls
DFH: compute_K                      :    499.950u      8.550s    220.383w   2412 calls
DFH: wAO Construction               :    126.450u      0.900s     80.954w    216 calls
Functional                          :   1811.917u     38.283s   1196.539w 20729006 calls
Timers On : Wed Apr 15 12:26:05 2026
DFH: compute_wK()                   :    728.533u     81.633s    411.960w   2412 calls
V_xc                                :   3757.517u     50.967s   2492.650w 20683894 calls
DFH: wAO Copy                       :     24.550u      3.967s     20.173w    216 calls
V_xc                                :   3766.917u     51.000s   2497.886w 20729006 calls

Functional                          :   1803.083u     39.433s   1195.758w 20729067 calls
JK: AO2USO                          :      0.017u      0.000s      0.008w   3663 calls
Timers Off: Wed Apr 15 16:26:15 2026
Host: CHEM9LYY31VAWS
V_xc                                :   3760.250u     51.050s   2497.723w 20729067 calls
HF: Form F                          :      0.183u      0.033s      0.121w   2412 calls

Wall Time:    14409.82 seconds

HF: Form core H                     :      2.783u      0.133s      2.146w    108 calls
RV: Form V                          :  16229.050u    328.467s  10777.968w   3674 calls
JK: D                               :      0.383u      0.850s      0.817w   3670 calls
HF: Form D                          :      0.300u      0.583s      0.517w   2412 calls
                                                       Time (seconds)
DFH: sparsity prep                  :      9.333u      0.250s      6.400w    108 calls

JK: USO2AO                          :      0.067u      1.000s      0.613w   3670 calls
Module                                       User      System        Wall        Calls
HF: Form S/X                        :      2.783u      0.283s      2.032w    108 calls
JK: D                               :      0.517u      1.083s      0.878w   3670 calls
Timers On : Wed Apr 15 12:26:05 2026
HF: Guess                           :      8.983u      3.917s      9.656w    108 calls
JK: D                               :      0.533u      1.017s      0.934w   3662 calls
Libint2ERI::Libint2ERI              :     17.917u      0.550s     12.451w    540 calls
SAD Guess                           :      8.850u      3.833s      9.532w    108 calls
JK: JK                              :   3085.317u    298.183s   1876.052w   3670 calls
HF: DIIS                            :     12.833u     10.783s     17.654w   2304 calls
JK: USO2AO                          :      0.033u      0.950s      0.712w   3662 calls
JK: USO2AO                          :      0.017u      0.833s      0.608w   3670 calls
Timers Off: Wed Apr 15 16:26:15 2026
DFH: compute_JK()                   :    636.867u     59.250s    362.911w   2412 calls
DFH: initialize()                   :    911.517u     59.717s    592.269w    108 calls

Wall Time:    14409.75 seconds

DFH: Grabbing AOs                   :      0.000u      0.017s      0.004w   2412 calls
V: Grid                             :    330.650u     18.483s    229.474w    162 calls
JK: JK                              :   3091.467u    310.083s   1888.928w   3670 calls
HF: Form G                          :  11730.183u    360.450s   7695.235w   2412 calls
build grid                          :    281.883u      8.100s    189.584w    162 calls
Properties                          :  10592.550u    108.467s   6994.606w 20751675 calls
RV: Form V                          :  16236.333u    328.217s  10785.155w   3671 calls
post-process grid                   :     48.717u     10.383s     39.860w    162 calls
DFH: compute_JK()                   :    642.633u     60.450s    367.818w   2412 calls
Functional                          :   1813.250u     37.500s   1196.666w 20751675 calls
Properties                          :  10604.233u    107.500s   7004.197w 20734731 calls
DFH: compute_J                      :    127.217u     13.783s    109.106w   2412 calls
Functional                          :   1802.217u     38.050s   1196.556w 20734731 calls
DFH: sparsity prep                  :      9.217u      0.333s      6.398w    108 calls
DFH: Grabbing AOs                   :      0.000u      0.000s      0.004w   2412 calls
HF: Form C                          :     49.383u      1.500s     33.753w   2304 calls
JK: JK                              :   3060.633u    310.000s   1867.849w   3662 calls
Libint2ERI::Libint2ERI              :     18.383u      0.633s     12.695w    540 calls
DFH: compute_J                      :    127.033u     12.667s    109.121w   2412 calls
                                                       Time (seconds)
Libint2ErfERI::Libint2ErfERI        :     10.967u      0.250s      7.285w    162 calls
Timers On : Wed Apr 15 12:26:05 2026
V_xc                                :   3759.817u     48.833s   2499.084w 20751675 calls
V_xc                                :   3765.683u     48.400s   2497.916w 20734731 calls
DFH: initialize()                   :    905.467u     56.267s    586.671w    108 calls
DFH: compute_JK()                   :    639.800u     61.750s    366.762w   2412 calls
DFH: compute_K                      :    504.367u      8.583s    222.798w   2412 calls
Timers Off: Wed Apr 15 16:26:15 2026
DFH: compute_K                      :    498.267u      8.217s    220.236w   2412 calls
JK: D                               :      0.467u      0.750s      0.840w   3674 calls
JK: (A|mn)                          :     64.400u      1.267s     42.721w     54 calls
DFH: compute_wK()                   :    734.300u     80.350s    416.535w   2412 calls
V: Grid                             :    330.167u     18.367s    230.668w    162 calls
Libint2ErfERI::Libint2ErfERI        :     10.800u      0.317s      7.195w    162 calls
DFH: compute_wK()                   :    728.350u     82.183s    414.330w   2412 calls
DFH: Grabbing AOs                   :      0.000u      0.000s      0.005w   2412 calls
JK: D                               :      0.400u      0.633s      0.813w   3671 calls
JK: AO2USO                          :      0.000u      0.017s      0.006w   3670 calls
JK: AO2USO                          :      0.000u      0.033s      0.010w   3670 calls
DFH: compute_J                      :    128.350u     13.833s    109.385w   2412 calls
DFH: AO Construction                :    126.183u      3.567s     86.426w    216 calls
JK: USO2AO                          :      0.033u      0.850s      0.665w   3674 calls

Wall Time:    14409.84 seconds

JK: (A|Q)^-1/2                      :     89.067u      1.850s     58.703w     54 calls
DFH: compute_K                      :    501.033u      8.917s    222.745w   2412 calls
Module                                       User      System        Wall        Calls
HF: Form F                          :      0.217u      0.017s      0.135w   2412 calls
build grid                          :    281.733u      8.217s    190.770w    162 calls
HF: Form F                          :      0.250u      0.017s      0.120w   2412 calls
DFH: AO Construction                :    125.867u      3.283s     85.713w    216 calls
DFH: compute_wK()                   :    729.000u     81.117s    412.472w   2412 calls
                                                       Time (seconds)
HF: Form D                          :      0.217u      0.683s      0.543w   2412 calls
JK: AO2USO                          :      0.000u      0.033s      0.006w   3662 calls
post-process grid                   :     48.350u     10.150s     39.869w    162 calls
DFH: AO-Met. Contraction            :    276.267u     20.217s    145.283w    432 calls
HF: DIIS                            :     13.417u     11.417s     18.040w   2304 calls
JK: USO2AO                          :      0.017u      0.900s      0.605w   3671 calls
JK: (Q|mn)                          :     34.933u      1.050s      7.393w     54 calls
DFH: wAO Construction               :    126.067u      0.833s     79.934w    216 calls

HF: Form D                          :      0.300u      0.483s      0.555w   2412 calls
DFH: AO-Met. Contraction            :    276.400u     22.033s    143.892w    432 calls
HF: Form F                          :      0.167u      0.033s      0.125w   2412 calls
JK: JK                              :   3100.567u    307.517s   1892.955w   3674 calls
Module                                       User      System        Wall        Calls
DFH: compute_JK()                   :    639.783u     58.283s    363.479w   2412 calls


DFH: wAO Construction               :    125.833u      0.917s     80.401w    216 calls
Host: CHEM9LYY31VAWS
DFH: wAO Copy                       :     23.417u      3.483s     18.484w    216 calls
Host: CHEM9LYY31VAWS
Host: CHEM9LYY31VAWS

JK: (A|mn)^L                        :     67.383u      1.233s     44.824w     54 calls
DFH: sparsity prep                  :      9.533u      0.267s      6.651w    108 calls
DFH: wAO Copy                       :     24.317u      4.333s     21.556w    216 calls

V: Grid                             :    328.883u     18.467s    228.759w    162 calls
JK: JK                              :   3109.117u    303.500s   1894.179w   3671 calls
JK: (A|Q)^-1                        :     88.483u      1.817s     58.105w     54 calls
HF: Form C                          :     49.417u      1.633s     33.933w   2304 calls
HF: Form D                          :      0.300u      0.700s      0.581w   2412 calls
Libint2ERI::Libint2ERI              :     18.350u      0.600s     12.674w    540 calls

HF: DIIS                            :     13.217u     11.633s     18.416w   2304 calls
[...]
| | | | JK: K2                          :    611.283u     12.200s    153.415w   5163 calls
JK: wK                            :   4288.900u    576.550s   2930.145w  10308 calls
| | | | JK: (Q|mn)                          :    152.883u      6.067s     33.413w    222 calls
JK: J1                          :     52.633u      2.050s     36.349w   5160 calls
| | Functional                        :   2529.433u     52.933s   1688.431w 28731594 calls
JK: USO2AO                          :      0.033u      2.783s      1.925w   5145 calls
JK: J1                          :     52.267u      2.217s     36.246w   5147 calls
JK: JK                              :   7205.083u    919.950s   4835.445w   5136 calls
JK: AO2USO                          :      0.000u      0.000s      0.008w   5090 calls
Functional                        :   2517.900u     56.183s   1690.431w 28788142 calls
JK: AO2USO                          :      0.000u      0.000s      0.008w   5101 calls
JK: J2                          :    135.133u      1.200s     89.542w   5144 calls
| | RV: Form V                          :  23956.017u    485.383s  16075.127w   5102 calls
JK: K1                          :   2089.050u    192.417s   1514.614w   5154 calls
| | | JK: wK                            :   4259.250u    628.967s   2951.462w  10188 calls
JK: K                             :   2681.233u    205.317s   1660.080w   5124 calls
JK: J2                          :    133.033u      1.383s     88.342w   5081 calls
JK: J                             :    187.000u      4.083s    126.348w   5151 calls
JK: (A|mn)^L                        :    274.967u      5.950s    183.893w    222 calls
JK: JK                              :   7205.817u    940.767s   4850.582w   5145 calls
| | | JK: K2                          :    608.100u     11.367s    152.785w   5146 calls
| | | RV: Form V                          :  23920.950u    474.233s  16078.802w   5090 calls
| | | RV: Form V                          :  23958.417u    489.583s  16088.306w   5101 calls
| | JK: wK2                         :    686.550u     21.600s    190.162w  10220 calls
JK: wK                            :   4294.867u    591.517s   2943.008w  10326 calls
| JK: wK1                         :   3595.883u    547.467s   2732.456w  20616 calls
| | | | | | JK: (A|Q)^-1                        :    364.167u      9.717s    243.063w    222 calls
| JK: J2                          :    134.433u      1.150s     89.728w   5160 calls
| V_xc                              :   5343.333u     74.017s   3598.571w 28731594 calls
JK: J2                          :    134.783u      0.917s     89.145w   5147 calls
JK: J                             :    187.983u      3.333s    126.339w   5136 calls
| JK: K                             :   2695.433u    195.317s   1659.738w   5144 calls
JK: AO2USO                          :      0.000u      0.000s      0.009w   5110 calls
JK: K2                          :    609.067u     12.300s    153.574w   5154 calls
V_xc                              :   5381.167u     75.667s   3605.349w 28788142 calls
| Properties                        :  15975.133u    165.867s  10658.538w 28816216 calls
| | JK: K                             :   2672.217u    201.983s   1651.658w   5081 calls
JK: wK1                         :   3578.833u    599.933s   2756.707w  20376 calls
| | JK: K1                          :   2075.350u    190.033s   1504.386w   5124 calls
| JK: J1                          :     51.533u      2.833s     36.465w   5151 calls

**************************************************************************************
JK: wK                            :   4281.017u    609.517s   2949.382w  10292 calls
| JK: J                             :    188.717u      3.667s    126.405w   5145 calls
| | | Properties                        :  15966.967u    164.517s  10661.331w 28748566 calls
Properties                        : 307445734561834816.000u 307445734561825920.000s  10663.963w 28810898 calls
| | | RV: Form V                          :  23984.933u    485.683s  16101.378w   5110 calls
| 
**************************************************************************************
| | | | JK: wK2                         :    692.600u     21.817s    192.148w  10308 calls
| | JK: wK1                         :   3596.917u    562.383s   2744.381w  20652 calls
| | Libint2ERI::Libint2ERI            :      0.083u      0.017s      0.040w    222 calls
| | JK: K                             :   2694.617u    204.783s   1663.442w   5147 calls
JK: K                             :   2708.533u    197.767s   1669.387w   5160 calls
| | JK: J1                          :     52.267u      1.950s     36.159w   5136 calls
JK: wK                            :   4267.650u    622.517s   2948.429w  10308 calls
JK: wK2                         :    680.050u     20.767s    188.720w  10188 calls
| Functional                        :   2526.000u     52.550s   1690.840w 28816216 calls
JK: K1                          :   2088.133u    179.983s   1503.840w   5144 calls
| | JK: K1                          :   2075.633u    185.883s   1498.897w   5081 calls
JK: AO2USO                          :      0.000u      0.000s      0.008w   5154 calls
JK: K2                          :    605.683u     11.033s    152.550w   5124 calls
| | JK: J1                          :     52.050u      2.367s     36.206w   5145 calls
JK: (Q|mn)^L                        :    147.333u      0.700s     29.749w    222 calls
| | JK: J2                          :    133.833u      1.050s     88.821w   5151 calls
JK: wK1                         :   3588.167u    578.400s   2751.278w  20584 calls
| | | | | | | | JK: AO2USO                          :      0.017u      0.033s      0.013w   5094 calls
Properties                        :  15978.000u    165.017s  10670.898w 28861451 calls
| | | Functional                        :   2508.933u     52.917s   1688.784w 28748566 calls
Functional                        :   2521.483u     55.750s   1691.646w 28810898 calls
RV: Form V                          :  24120.850u    484.367s  16200.330w   5154 calls
JK: wK2                         :    697.467u     21.383s    193.048w  10326 calls
| | | | | JK: K1                          :   2096.300u    182.617s   1512.380w   5160 calls
| JK: (A|mn)^R                        :    296.550u      2.417s    195.333w    222 calls
JK: K1                          :   2085.750u    189.317s   1507.518w   5147 calls
JK: K2                          :    607.050u     11.533s    152.843w   5144 calls
V_xc                              :   5364.517u     74.983s   3600.049w 28816216 calls
JK: J2                          :    134.117u      1.083s     89.112w   5136 calls
JK: wK1                         :   3573.133u    593.467s   2750.266w  20616 calls
JK: K2                          :    596.350u     11.600s    149.409w   5081 calls
RV: Form V                          :  23911.383u    482.850s  16051.305w   5094 calls
| | | | JK: AO2USO                          :      0.017u      0.017s      0.009w   5163 calls
JK: wK                            :   4246.700u    615.000s   2931.538w  10248 calls
JK: wK2                         :    692.500u     22.350s    192.202w  10292 calls
JK: J2                          :    135.067u      0.983s     89.090w   5145 calls
JK: D                               :      0.567u      0.467s      0.858w   5142 calls
JK: K                             :   2687.883u    206.800s   1662.482w   5151 calls
| | | | | | | Properties                        :  16087.050u    164.333s  10736.202w 29110040 calls
V_xc                              :   5373.283u     76.350s   3605.404w 28810898 calls
| | 
**************************************************************************************
| Functional                        :   2532.750u     54.133s   1692.026w 28861451 calls
V_xc                              :   5355.883u     71.767s   3605.961w 28748566 calls
JK: AO2USO                          :      0.017u      0.000s      0.008w   5146 calls
RV: Form V                          :  24195.967u    485.167s  16257.800w   5163 calls
JK: USO2AO                          :      0.050u      2.700s      1.981w   5142 calls
| | | JK: K2                          :    608.767u     11.267s    152.795w   5147 calls
JK: K2                          :    612.033u     11.117s    154.003w   5160 calls
| | Properties                        :  15938.450u    162.767s  10641.055w 28771083 calls
JK: wK                            :   4274.383u    584.267s   2928.864w  10288 calls
JK: K                             :   2693.967u    198.750s   1659.589w   5136 calls
JK: wK                            :   4241.600u    613.950s   2930.673w  10162 calls
RV: Form V                          :  24123.100u    470.033s  16199.737w   5146 calls

**************************************************************************************
| | JK: wK2                         :    694.033u     20.550s    192.330w  10308 calls

**************************************************************************************
| JK: JK                              :   7190.717u    956.717s   4850.791w   5142 calls
| JK: wK1                         :   3559.450u    585.750s   2734.601w  20496 calls
JK: K                             :   2695.817u    202.333s   1663.816w   5145 calls
| JK: K1                          :   2077.517u    190.850s   1506.260w   5151 calls
| | | | | V_xc                              :   5381.200u     74.117s   3612.021w 28861451 calls
| | | | Functional                        :   2541.333u     55.883s   1704.832w 29110040 calls
Properties                        :  16129.200u    164.767s  10775.381w 29160905 calls
JK: AO2USO                          :      0.000u      0.000s      0.008w   5154 calls
JK: wK                            :   4284.500u    600.883s   2946.066w  10320 calls
| | | | JK: wK                            :   4282.933u    616.683s   2954.093w  10294 calls
| | Functional                        :   2525.117u     53.400s   1688.957w 28771083 calls

**************************************************************************************
JK: wK1                         :   3582.733u    555.817s   2731.756w  20576 calls
JK: wK1                         :   3563.033u    584.067s   2737.168w  20324 calls
JK: K1                          :   2087.133u    182.367s   1504.736w   5136 calls
Properties                        :  16081.617u    160.550s  10749.952w 29064797 calls
JK: J                             :    186.850u      2.883s    125.554w   5142 calls
| | RV: Form V                          :  24107.950u    481.867s  16207.755w   5154 calls
| | JK: wK2                         :    686.750u     21.150s    191.166w  10248 calls
| | JK: K1                          :   2086.067u    186.733s   1507.384w   5145 calls
JK: K2                          :    610.117u     11.133s    152.979w   5151 calls
| | | Functional                        :   2547.567u     55.767s   1709.096w 29160905 calls
| | | JK: wK1                         :   3591.117u    572.433s   2748.879w  20640 calls
| | | V_xc                              :   5400.750u     74.667s   3630.941w 29110040 calls
| | JK: AO2USO                          :      0.000u      0.017s      0.009w   5124 calls
JK: wK1                         :   3589.700u    588.000s   2755.418w  20588 calls
| | | V_xc                              :   5356.233u     73.450s   3596.709w 28771083 calls
JK: K2                          :    606.667u     12.033s    151.632w   5136 calls
JK: wK2                         :    678.017u     21.367s    187.651w  10162 calls
JK: wK2                         :    691.233u     20.617s    191.617w  10288 calls
| 
**************************************************************************************
Properties                        :  16044.017u    162.467s  10736.071w 29110147 calls
Functional                        :   2539.217u     52.100s   1701.397w 29064797 calls
| | RV: Form V                          :  24007.883u    473.217s  16117.046w   5124 calls
JK: J1                          :     50.767u      1.650s     35.511w   5142 calls
| | JK: wK                            :   4283.183u    623.383s   2958.602w  10302 calls
JK: K2                          :    609.500u     10.867s    153.315w   5145 calls

**************************************************************************************
JK: AO2USO                          :      0.033u      0.000s      0.011w   5081 calls
| JK: wK2                         :    693.033u     20.533s    191.558w  10320 calls
JK: AO2USO                          :      0.033u      0.017s      0.008w   5144 calls
V_xc                              :   5426.200u     74.700s   3646.518w 29160905 calls
| | | | | | | JK: wK2                         :    692.867u     21.000s    192.602w  10294 calls
| RV: Form V                          :  23879.800u    476.083s  16016.482w   5081 calls
Properties                        :  16005.400u    162.733s  10682.230w 28940553 calls
Functional                        :   2546.550u     52.750s   1705.170w 29110147 calls
JK: AO2USO                          :      0.000u      0.017s      0.009w   5160 calls
RV: Form V                          :  24104.417u    475.833s  16176.587w   5144 calls
JK: wK                            :   4282.433u    594.150s   2937.963w  10272 calls
JK: J2                          :    134.400u      1.050s     88.985w   5142 calls

**************************************************************************************
JK: wK1                         :   3582.067u    593.133s   2758.402w  20604 calls
V_xc                              :   5409.067u     71.750s   3628.592w 29064797 calls
JK: AO2USO                          :      0.017u      0.000s      0.009w   5147 calls
JK: wK                            :   4279.850u    605.517s   2946.797w  10290 calls
| | RV: Form V                          :  24124.167u    483.067s  16206.679w   5160 calls
| | | | | | 
**************************************************************************************
| | RV: Form V                          :  24095.083u    490.433s  16197.953w   5147 calls
| Functional                        : 307445734561827328.000u 307445734561825856.000s   1695.503w 28940553 calls
JK: wK1                         :   3592.800u    565.050s   2741.554w  20544 calls
Properties                        :  16071.900u    163.717s  10726.311w 29053709 calls
| V_xc                              :   5426.333u     74.067s   3642.577w 29110147 calls
Properties                        :  15924.267u    162.450s  10620.582w 28697747 calls
JK: wK2                         :    700.567u     22.150s    194.315w  10302 calls
| JK: wK1                         :   3588.433u    576.283s   2749.368w  20580 calls
JK: K                             :   2684.967u    204.800s   1658.128w   5142 calls
Properties                        :  16075.117u    166.900s  10741.230w 29143952 calls
| 
**************************************************************************************
| | | | Properties                        :  16074.533u    165.883s  10732.247w 29070596 calls
JK: AO2USO                          :      0.017u      0.000s      0.010w   5151 calls
| | | | | V_xc                              :   5381.033u     73.617s   3618.051w 28940553 calls
JK: wK2                         :    689.350u     20.867s    190.764w  10272 calls
Functional                        :   2539.883u     52.533s   1700.390w 29053709 calls
RV: Form V                          :  24108.517u    489.617s  16230.694w   5151 calls
| Functional                        :   2516.233u     53.967s   1684.306w 28697747 calls
JK: wK2                         :    690.983u     21.383s    191.788w  10290 calls
JK: K1                          :   2079.867u    188.550s   1503.325w   5142 calls
Functional                        :   2545.650u     54.567s   1705.978w 29143952 calls

**************************************************************************************
| | JK: AO2USO                          :      0.000u      0.000s      0.008w   5136 calls
| Functional                        :   2536.000u     56.533s   1705.349w 29070596 calls
JK: AO2USO                          :      0.000u      0.033s      0.008w   5145 calls
| | | Properties                        :  16063.650u    164.200s  10750.086w 29093172 calls
RV: Form V                          :  24021.917u    482.733s  16121.502w   5136 calls
V_xc                              : 307445734561830528.000u 307445734561825920.000s   3626.687w 29053709 calls
V_xc                              :   5347.650u     75.133s   3587.108w 28697747 calls
| RV: Form V                          :  24053.533u    480.283s  16158.218w   5145 calls
JK: K2                          :    604.783u     11.250s    151.590w   5142 calls
V_xc                              :   5409.783u     74.700s   3631.801w 29143952 calls

**************************************************************************************
| | 
**************************************************************************************
| V_xc                              :   5393.283u     75.550s   3632.031w 29070596 calls

**************************************************************************************
Properties                        :  16010.817u    161.100s  10685.925w 29008428 calls
Functional                        :   2543.533u     56.450s   1706.459w 29093172 calls
Properties                        :  16007.783u    160.467s  10706.517w 29059236 calls

**************************************************************************************
| | | | JK: wK                            :   4276.983u    620.833s   2955.204w  10284 calls
Functional                        :   2540.700u     53.183s   1695.944w 29008428 calls
Functional                        :   2544.150u     50.283s   1699.677w 29059236 calls
V_xc                              :   5409.183u     74.533s   3646.827w 29093172 calls
| | | | 
**************************************************************************************
JK: wK1                         :   3585.433u    591.900s   2757.596w  20568 calls
V_xc                              :   5381.333u     71.533s   3616.533w 29008428 calls
V_xc                              :   5413.433u     71.683s   3631.839w 29059236 calls
| | 
**************************************************************************************

**************************************************************************************
JK: wK2                         :    691.083u     20.683s    191.831w  10284 calls
JK: AO2USO                          :      0.000u      0.000s      0.009w   5142 calls
RV: Form V                          :  24073.067u    484.817s  16144.304w   5142 calls
| Properties                        :  16038.750u    166.083s  10698.445w 29042287 calls
| Functional                        :   2541.100u     53.233s   1698.106w 29042287 calls
| V_xc                              :   5400.850u     72.483s   3622.055w 29042287 calls

**************************************************************************************

Host: CHEM9LYY31VAWS

Timers On : Thu Apr 16 16:00:12 2026
Timers Off: Fri Apr 17 07:12:06 2026

Wall Time:    54713.97 seconds

                                                       Time (seconds)
Module                                       User      System        Wall        Calls

--------------------------------------------------------------------------------------

**************************************************************************************

Host: CHEM9LYY31VAWS

Timers On : Fri Jun 19 11:02:34 2026
Timers Off: Fri Jun 19 11:02:44 2026

Wall Time:        9.40 seconds

                                                       Time (seconds)
Module                                       User      System        Wall        Calls

--------------------------------------------------------------------------------------

**************************************************************************************
