
Host: cn579.karolina.it4i.cz

Timers On : Wed Nov  5 15:58:01 2025
Timers Off: Wed Nov  5 15:58:02 2025

Wall Time:        0.86 seconds

                                                       Time (seconds)
Module                                       User      System        Wall        Calls

--------------------------------------------------------------------------------------

**************************************************************************************
