&FCI NORB=8,NELEC=0,MS2=0
ORBSYM=1,1,1,1,
ISYM=1,
/
      4.55620449097382529402e-01 	 1 1 1 1
      3.52355457008041786371e-02 	 1 1 2 1
      1.90955659071054661968e-01 	 1 1 2 2
     -4.15229178664199644001e-06 	 1 1 3 1
      9.91254170713278867221e-06 	 1 1 3 2
      3.91037067005816196819e-01 	 1 1 3 3
      8.82647199754349875837e-06 	 1 1 4 1
      4.12247431316687876343e-05 	 1 1 4 2
     -3.92897418919348762056e-02 	 1 1 4 3
      1.57536909280290710056e-01 	 1 1 4 4
     -5.31375429119099115804e-02 	 1 1 5 1
     -1.04875832341497373344e-03 	 1 1 5 2
     -5.95769137973096392288e-06 	 1 1 5 3
      1.90947470403226855339e-05 	 1 1 5 4
      3.17755344186694155262e-01 	 1 1 5 5
     -2.41242242720052212643e-05 	 1 1 6 1
     -5.72658633286075860404e-06 	 1 1 6 2
      6.05647812221534603827e-03 	 1 1 6 3
     -3.23379691667618970885e-02 	 1 1 6 4
      7.68468136485878387451e-05 	 1 1 6 5
      1.67846591046212134657e-01 	 1 1 6 6
      2.34748888307739524139e-02 	 1 1 7 1
      1.55072742344583049123e-02 	 1 1 7 2
      2.58368993932074296190e-06 	 1 1 7 3
      7.79541228583309028679e-06 	 1 1 7 4
     -4.59070877178964012466e-02 	 1 1 7 5
     -3.22815571572038348055e-05 	 1 1 7 6
      2.06876129965649635523e-01 	 1 1 7 7
      9.93231372417117952534e-03 	 1 1 8 1
     -5.47718540479937565646e-02 	 1 1 8 2
     -2.36038856534915101527e-06 	 1 1 8 3
     -1.88221715920985017197e-05 	 1 1 8 4
     -8.84248444383836096350e-02 	 1 1 8 5
     -3.61916999170626548996e-05 	 1 1 8 6
     -1.49693100949972127817e-02 	 1 1 8 7
      2.11449336585121078214e-01 	 1 1 8 8
      3.52355457008042202705e-02 	 2 1 1 1
      1.81585895328951960059e-02 	 2 1 2 1
     -2.21621694008309715052e-02 	 2 1 2 2
      3.79839131025450539721e-06 	 2 1 3 1
      6.41455724713747682238e-07 	 2 1 3 2
      4.50526787106614035050e-02 	 2 1 3 3
      5.55889604407821151858e-06 	 2 1 4 1
     -1.20439233488179962280e-05 	 2 1 4 2
     -7.97197689929514570484e-03 	 2 1 4 3
     -2.01714775713491417664e-02 	 2 1 4 4
      2.07190540070459295816e-03 	 2 1 5 1
      8.58884656814553476556e-03 	 2 1 5 2
      2.22576728441486810771e-06 	 2 1 5 3
      7.46641012478331773224e-07 	 2 1 5 4
      1.81164552551962530769e-02 	 2 1 5 5
     -8.06700337239860138587e-07 	 2 1 6 1
      6.11648093044611263912e-06 	 2 1 6 2
      3.60776998345521595496e-03 	 2 1 6 3
      7.13471264639379057493e-03 	 2 1 6 4
      1.40315606396630579103e-05 	 2 1 6 5
     -2.34490732799011135368e-02 	 2 1 6 6
      5.54725939169156342934e-03 	 2 1 7 1
     -2.81223648038448096817e-03 	 2 1 7 2
     -4.76339646790205694179e-07 	 2 1 7 3
     -5.67688231517527242730e-07 	 2 1 7 4
     -1.62167765018332091231e-02 	 2 1 7 5
     -5.57784800787201063681e-06 	 2 1 7 6
     -2.06127851221652412528e-02 	 2 1 7 7
     -1.13285106626677227470e-02 	 2 1 8 1
      6.44525466315008614682e-03 	 2 1 8 2
     -1.44747281002055193708e-06 	 2 1 8 3
      9.71005768875410521480e-07 	 2 1 8 4
     -1.15054646697159597413e-02 	 2 1 8 5
     -6.51744120368368107769e-06 	 2 1 8 6
      1.24067851903348919801e-02 	 2 1 8 7
     -1.72850244151468782072e-02 	 2 1 8 8
      1.90955659071054634213e-01 	 2 2 1 1
     -2.21621694008309784441e-02 	 2 2 2 1
      2.70117392227750996447e-01 	 2 2 2 2
     -6.21985254867809622090e-06 	 2 2 3 1
     -4.97950453230902224519e-07 	 2 2 3 2
      1.65405115535331881382e-01 	 2 2 3 3
     -1.31333171677829000788e-05 	 2 2 4 1
      3.04555858942799191028e-05 	 2 2 4 2
      9.82645751930295158205e-03 	 2 2 4 3
      2.44211481915567435452e-01 	 2 2 4 4
     -1.22197429583224687066e-02 	 2 2 5 1
     -1.53287868257380964498e-02 	 2 2 5 2
     -4.84933037749416057447e-06 	 2 2 5 3
     -7.48332135620496245086e-06 	 2 2 5 4
      2.05704953616099278646e-01 	 2 2 5 5
      1.82948772949194410967e-06 	 2 2 6 1
     -2.08401774976883819468e-05 	 2 2 6 2
     -3.46669246475497924362e-03 	 2 2 6 3
     -1.62990700578725215830e-02 	 2 2 6 4
     -6.69177351699813864421e-06 	 2 2 6 5
      2.39653796891090842269e-01 	 2 2 6 6
     -3.75393315367755124948e-03 	 2 2 7 1
      1.63517447277393285221e-02 	 2 2 7 2
      5.03160715342451648627e-08 	 2 2 7 3
     -6.02324804643985764371e-06 	 2 2 7 4
      1.27815143007689348276e-02 	 2 2 7 5
      2.66260991509942612527e-05 	 2 2 7 6
      2.40617421724766161750e-01 	 2 2 7 7
      1.92717644047450710476e-02 	 2 2 8 1
     -1.18532627456316673464e-02 	 2 2 8 2
      1.28274858639815384652e-06 	 2 2 8 3
      5.75669336106399782206e-06 	 2 2 8 4
      1.35390602584773579037e-02 	 2 2 8 5
      1.29299764700076464437e-05 	 2 2 8 6
     -2.25474403529548513003e-02 	 2 2 8 7
      2.44447257324796163314e-01 	 2 2 8 8
     -4.15229178678198472817e-06 	 3 1 1 1
      3.79839131026085560322e-06 	 3 1 2 1
     -6.21985254867670454577e-06 	 3 1 2 2
      1.13023627021506048451e-01 	 3 1 3 1
      3.33810823653403893063e-02 	 3 1 3 2
      7.35847567965744612980e-06 	 3 1 3 3
     -1.41829846858350615280e-02 	 3 1 4 1
     -1.19148225510641338210e-02 	 3 1 4 2
      1.12359726231958314554e-05 	 3 1 4 3
     -5.56488756128292504842e-06 	 3 1 4 4
     -2.08312849237742308647e-06 	 3 1 5 1
      3.00644491932996199863e-08 	 3 1 5 2
      8.91480064886929074452e-02 	 3 1 5 3
     -1.08555669437999241511e-02 	 3 1 5 4
     -2.03534958977507317295e-08 	 3 1 5 5
      2.27128759472826260296e-03 	 3 1 6 1
      8.62474816102758168324e-03 	 3 1 6 2
      3.85740797779694143078e-05 	 3 1 6 3
     -3.23383558141526093543e-06 	 3 1 6 4
      4.45021057187537346159e-04 	 3 1 6 5
      1.94876490608393487382e-06 	 3 1 6 6
      4.29578284235290540758e-07 	 3 1 7 1
      1.18396419046773765590e-06 	 3 1 7 2
     -2.46372331568090637000e-02 	 3 1 7 3
      8.79242803116841303845e-03 	 3 1 7 4
      2.49309881184809505240e-06 	 3 1 7 5
     -9.76499387463863541270e-03 	 3 1 7 6
     -4.32736378573204651502e-07 	 3 1 7 7
     -8.36595146682658297524e-09 	 3 1 8 1
     -3.32578018078852381283e-06 	 3 1 8 2
     -5.06341386235578880259e-02 	 3 1 8 3
      5.50189991807829587717e-03 	 3 1 8 4
      3.32515727000307287785e-07 	 3 1 8 5
     -6.33750762071874466919e-03 	 3 1 8 6
      2.22751500977964425449e-06 	 3 1 8 7
     -1.28550731108899623088e-06 	 3 1 8 8
      9.91254170708211577317e-06 	 3 2 1 1
      6.41455724716553055359e-07 	 3 2 2 1
     -4.97950453228954895774e-07 	 3 2 2 2
      3.33810823653404170619e-02 	 3 2 3 1
      1.05668213804338776557e-02 	 3 2 3 2
      1.26634183966042300913e-05 	 3 2 3 3
     -4.95506141158904168248e-03 	 3 2 4 1
     -1.43454353025687349546e-04 	 3 2 4 2
     -4.96779844730650073098e-08 	 3 2 4 3
     -5.07081615927661943742e-06 	 3 2 4 4
     -2.30908409850316040459e-07 	 3 2 5 1
     -2.18158536719634135484e-06 	 3 2 5 2
      2.72133402646182326334e-02 	 3 2 5 3
     -3.80999766802550586878e-03 	 3 2 5 4
      3.59320933071473903108e-06 	 3 2 5 5
      1.43731362635549672450e-03 	 3 2 6 1
      4.99780368416785701451e-04 	 3 2 6 2
      1.13316254574789238387e-05 	 3 2 6 3
     -6.24033825952626683512e-06 	 3 2 6 4
      1.93921094486074110236e-03 	 3 2 6 5
      3.20908714641992851642e-06 	 3 2 6 6
     -1.64213033500763023032e-07 	 3 2 7 1
      3.32913378728771351341e-08 	 3 2 7 2
     -7.71823246205551819626e-03 	 3 2 7 3
      1.08001882221927516733e-03 	 3 2 7 4
      4.20023824170798079045e-07 	 3 2 7 5
     -1.39715215538110390037e-04 	 3 2 7 6
      3.22075677030111283308e-06 	 3 2 7 7
     -9.97334451609145911625e-08 	 3 2 8 1
     -5.76943575415217209114e-06 	 3 2 8 2
     -1.52544981911118277679e-02 	 3 2 8 3
      3.28461349729681356679e-03 	 3 2 8 4
     -5.76711704773484080955e-06 	 3 2 8 5
     -4.70673146160049461241e-04 	 3 2 8 6
     -1.83523524427445028901e-06 	 3 2 8 7
      2.58567846449458580991e-06 	 3 2 8 8
      3.91037067005816307841e-01 	 3 3 1 1
      4.50526787106614173828e-02 	 3 3 2 1
      1.65405115535331687093e-01 	 3 3 2 2
      7.35847567959042041268e-06 	 3 3 3 1
      1.26634183965825409656e-05 	 3 3 3 2
      4.57918769491752475354e-01 	 3 3 3 3
      1.30101106976556122995e-05 	 3 3 4 1
      2.79887828637085386092e-05 	 3 3 4 2
     -4.99425038907998775084e-02 	 3 3 4 3
      1.43095372339017479213e-01 	 3 3 4 4
      3.80480132617520075411e-02 	 3 3 5 1
      2.00568863423048332484e-02 	 3 3 5 2
      3.52191090280871492945e-06 	 3 3 5 3
      1.94098592595455620542e-05 	 3 3 5 4
      2.90719694130518901964e-01 	 3 3 5 5
      1.61540696181431677955e-05 	 3 3 6 1
      4.27704858409496926674e-06 	 3 3 6 2
      1.22744927624147837780e-02 	 3 3 6 3
     -2.38617750536923682592e-02 	 3 3 6 4
      7.13129933498377131373e-05 	 3 3 6 5
      1.45782067916553903508e-01 	 3 3 6 6
     -4.82416062573849929035e-03 	 3 3 7 1
      8.09993554020069575494e-04 	 3 3 7 2
     -4.15833728489195787987e-07 	 3 3 7 3
      1.84659028157792828413e-06 	 3 3 7 4
     -4.34873320534171353691e-02 	 3 3 7 5
     -2.55934463820474553868e-05 	 3 3 7 6
      1.72412264461900138768e-01 	 3 3 7 7
     -3.28126502055538366021e-02 	 3 3 8 1
     -4.44706562289700763069e-02 	 3 3 8 2
     -7.72821421960334409588e-06 	 3 3 8 3
     -1.32384220217069848439e-05 	 3 3 8 4
     -8.61204916373865120294e-02 	 3 3 8 5
     -3.65337796578182839521e-05 	 3 3 8 6
      6.86758492398531223549e-04 	 3 3 8 7
      1.86368599769896448048e-01 	 3 3 8 8
      8.82647199754318027398e-06 	 4 1 1 1
      5.55889604407894166098e-06 	 4 1 2 1
     -1.31333171677870911979e-05 	 4 1 2 2
     -1.41829846858350441807e-02 	 4 1 3 1
     -4.95506141158904601929e-03 	 4 1 3 2
      1.30101106976794833820e-05 	 4 1 3 3
      4.75510761196253333577e-03 	 4 1 4 1
     -7.65696994304396021114e-03 	 4 1 4 2
     -5.03819127879069531917e-06 	 4 1 4 3
     -2.79132899276805855103e-06 	 4 1 4 4
      3.88587295771202392278e-06 	 4 1 5 1
      1.71978785114309526744e-07 	 4 1 5 2
     -1.14108436163682137876e-02 	 4 1 5 3
      4.05233896434870847353e-03 	 4 1 5 4
      6.56703454500454372820e-06 	 4 1 5 5
     -2.18893924365373866714e-03 	 4 1 6 1
      5.92805381836455924649e-03 	 4 1 6 2
     -3.64800942502186048338e-06 	 4 1 6 3
      4.76634808064314484198e-06 	 4 1 6 4
     -6.09311896300753462474e-03 	 4 1 6 5
     -7.32991583563842637335e-06 	 4 1 6 6
      1.07030716499409003233e-06 	 4 1 7 1
     -6.44153429276504964263e-07 	 4 1 7 2
      3.88397083389994133076e-03 	 4 1 7 3
      4.04176494152182035069e-03 	 4 1 7 4
     -1.37763976340120825327e-06 	 4 1 7 5
     -9.36290179070498398972e-03 	 4 1 7 6
     -5.21554482484835966322e-06 	 4 1 7 7
     -4.76324045382611936336e-06 	 4 1 8 1
     -3.89082050867346238870e-07 	 4 1 8 2
      6.77325947131562217107e-03 	 4 1 8 3
     -6.77280927218203848694e-03 	 4 1 8 4
     -1.80581922758325747238e-06 	 4 1 8 5
     -4.64622085089732173718e-03 	 4 1 8 6
      7.39789208142098077850e-06 	 4 1 8 7
     -8.45181928553560401357e-06 	 4 1 8 8
      4.12247431316721689898e-05 	 4 2 1 1
     -1.20439233488065816120e-05 	 4 2 2 1
      3.04555858942685824138e-05 	 4 2 2 2
     -1.19148225510641286168e-02 	 4 2 3 1
     -1.43454353025684395095e-04 	 4 2 3 2
      2.79887828636652348968e-05 	 4 2 3 3
     -7.65696994304395847641e-03 	 4 2 4 1
      3.46999894730575381141e-02 	 4 2 4 2
     -1.28621126152238358459e-05 	 4 2 4 3
      1.54203197545834314881e-06 	 4 2 4 4
     -5.35613995636806116969e-06 	 4 2 5 1
     -1.52875829460440920227e-05 	 4 2 5 2
     -9.19810500627869093160e-03 	 4 2 5 3
     -7.91402357025279556968e-03 	 4 2 5 4
      6.77908151560546931027e-06 	 4 2 5 5
      5.99750722756343945807e-03 	 4 2 6 1
     -2.32191998570590793505e-02 	 4 2 6 2
     -8.39694474112169365432e-06 	 4 2 6 3
     -2.67545139418560037556e-05 	 4 2 6 4
      1.94790426211194286910e-02 	 4 2 6 5
      3.94937397061544657757e-05 	 4 2 6 6
     -4.82636340198023965390e-07 	 4 2 7 1
     -4.93845409402248273752e-06 	 4 2 7 2
      4.70082431579178186987e-04 	 4 2 7 3
     -1.93332084303338321007e-02 	 4 2 7 4
      2.71544714298155870848e-06 	 4 2 7 5
      3.51943165541878308367e-02 	 4 2 7 6
      2.92302258416623062084e-05 	 4 2 7 7
      4.67054492406599182732e-06 	 4 2 8 1
     -1.79732280360100125460e-05 	 4 2 8 2
      5.01170945555647062708e-03 	 4 2 8 3
      1.96132694089917875013e-02 	 4 2 8 4
     -2.51494700810281932111e-05 	 4 2 8 5
      1.62246208766350721864e-02 	 4 2 8 6
     -1.90118601351674854679e-05 	 4 2 8 7
      3.57400908890686982945e-05 	 4 2 8 8
     -3.92897418919348623279e-02 	 4 3 1 1
     -7.97197689929514917428e-03 	 4 3 2 1
      9.82645751930295678622e-03 	 4 3 2 2
      1.12359726232066819474e-05 	 4 3 3 1
     -4.96779844686456989343e-08 	 4 3 3 2
     -4.99425038907998636306e-02 	 4 3 3 3
     -5.03819127878933921942e-06 	 4 3 4 1
     -1.28621126152264226845e-05 	 4 3 4 2
      1.23458738836786756365e-02 	 4 3 4 3
      1.50371862966613163010e-02 	 4 3 4 4
     -6.56993081631656195701e-03 	 4 3 5 1
     -9.77543893857981543993e-04 	 4 3 5 2
      9.99985162507717055590e-06 	 4 3 5 3
     -5.91424058639673467456e-06 	 4 3 5 4
     -1.70792040095829843194e-02 	 4 3 5 5
     -1.89118539428472287587e-06 	 4 3 6 1
     -2.80820280707417444137e-06 	 4 3 6 2
     -1.51781986938905131407e-03 	 4 3 6 3
      5.74000065051486277334e-03 	 4 3 6 4
     -1.35096242381677339591e-05 	 4 3 6 5
      6.81068985139507421245e-03 	 4 3 6 6
      8.75782076073875902396e-04 	 4 3 7 1
      2.71122647315914680304e-04 	 4 3 7 2
     -2.91692322923792590034e-06 	 4 3 7 3
      8.56991655328005165349e-07 	 4 3 7 4
      6.59271371996880770766e-03 	 4 3 7 5
      6.66854255596660527964e-06 	 4 3 7 6
      2.05954586512298700243e-03 	 4 3 7 7
      6.21102660566509329892e-03 	 4 3 8 1
      1.16306090563284073025e-02 	 4 3 8 2
     -3.85104711783906637220e-06 	 4 3 8 3
      6.25851051262302862665e-06 	 4 3 8 4
      1.90736256699322904995e-02 	 4 3 8 5
      6.86988588960680087630e-06 	 4 3 8 6
     -6.15912499050526415952e-04 	 4 3 8 7
      1.89480851282996577180e-03 	 4 3 8 8
      1.57536909280290737811e-01 	 4 4 1 1
     -2.01714775713491313580e-02 	 4 4 2 1
      2.44211481915567324430e-01 	 4 4 2 2
     -5.56488756129819451136e-06 	 4 4 3 1
     -5.07081615928745552992e-06 	 4 4 3 2
      1.43095372339017368191e-01 	 4 4 3 3
     -2.79132899276331050784e-06 	 4 4 4 1
      1.54203197544812623740e-06 	 4 4 4 2
      1.50371862966613267093e-02 	 4 4 4 3
      2.66491052836173025753e-01 	 4 4 4 4
     -5.18062148126389055564e-03 	 4 4 5 1
     -1.62352914524776063832e-02 	 4 4 5 2
     -4.20672629289131326129e-06 	 4 4 5 3
     -5.52835889395081157708e-06 	 4 4 5 4
      1.85519636804031634592e-01 	 4 4 5 5
      5.72806641710353060579e-07 	 4 4 6 1
     -5.12299049447900935628e-06 	 4 4 6 2
     -3.62761970780703900397e-03 	 4 4 6 3
     -1.62574529524355556979e-03 	 4 4 6 4
     -2.99083760948555817485e-05 	 4 4 6 5
      2.56098792026901611596e-01 	 4 4 6 6
      9.30385685932170808030e-04 	 4 4 7 1
     -5.39505177879939009505e-03 	 4 4 7 2
      5.53862903586294613390e-07 	 4 4 7 3
     -6.15893478365157595237e-06 	 4 4 7 4
      2.36633150756279247995e-02 	 4 4 7 5
     -6.02069895486183974884e-07 	 4 4 7 6
      2.30408817926673725740e-01 	 4 4 7 7
      7.21206678219392469803e-03 	 4 4 8 1
      1.10643206400244872856e-02 	 4 4 8 2
      2.94501922424540157224e-06 	 4 4 8 3
     -4.42266932003765623756e-06 	 4 4 8 4
      2.46632896838595364053e-02 	 4 4 8 5
      4.21044112330938444721e-06 	 4 4 8 6
     -6.37865592289948470095e-04 	 4 4 8 7
      2.34906723863890970483e-01 	 4 4 8 8
     -5.31375429119100295416e-02 	 5 1 1 1
      2.07190540070459642760e-03 	 5 1 2 1
     -1.22197429583224461552e-02 	 5 1 2 2
     -2.08312849234433586197e-06 	 5 1 3 1
     -2.30908409852564383539e-07 	 5 1 3 2
      3.80480132617519381522e-02 	 5 1 3 3
      3.88587295771096767269e-06 	 5 1 4 1
     -5.35613995637120535599e-06 	 5 1 4 2
     -6.56993081631657496744e-03 	 5 1 4 3
     -5.18062148126388535146e-03 	 5 1 4 4
      6.62683099859466412385e-02 	 5 1 5 1
      1.14912669555556953144e-02 	 5 1 5 2
     -8.43199261770111661107e-07 	 5 1 5 3
      3.25176781367135022893e-06 	 5 1 5 4
     -2.57714653973950373611e-02 	 5 1 5 5
      2.83367506191141207690e-05 	 5 1 6 1
      6.32509345280432742843e-06 	 5 1 6 2
      3.23633250765457611275e-03 	 5 1 6 3
      1.25734376440341693356e-04 	 5 1 6 4
     -9.37665640493228870012e-06 	 5 1 6 5
     -8.51577134252204555331e-03 	 5 1 6 6
     -2.11229702222285702085e-02 	 5 1 7 1
     -1.18694038933186262613e-02 	 5 1 7 2
      1.50393537840348432459e-07 	 5 1 7 3
     -2.11337600656486420300e-06 	 5 1 7 4
      7.35476388930927840043e-03 	 5 1 7 5
      3.33014679918959237082e-06 	 5 1 7 6
     -1.80583649549185577821e-02 	 5 1 7 7
     -2.83688965765650120965e-02 	 5 1 8 1
      4.12646181207361115173e-03 	 5 1 8 2
      3.51074370018026822947e-07 	 5 1 8 3
      2.25214208072483380356e-06 	 5 1 8 4
      3.46262115882707425044e-03 	 5 1 8 5
      4.44297519446017137549e-07 	 5 1 8 6
      6.51138277305657320326e-03 	 5 1 8 7
     -1.48104679975285691979e-02 	 5 1 8 8
     -1.04875832341498522599e-03 	 5 2 1 1
      8.58884656814553996973e-03 	 5 2 2 1
     -1.53287868257380999193e-02 	 5 2 2 2
      3.00644492031525785440e-08 	 5 2 3 1
     -2.18158536719642139946e-06 	 5 2 3 2
      2.00568863423047950845e-02 	 5 2 3 3
      1.71978785113545688314e-07 	 5 2 4 1
     -1.52875829460400703102e-05 	 5 2 4 2
     -9.77543893857990868132e-04 	 5 2 4 3
     -1.62352914524776029137e-02 	 5 2 4 4
      1.14912669555556901102e-02 	 5 2 5 1
      1.90847870154059670589e-02 	 5 2 5 2
      3.49449022628136652957e-07 	 5 2 5 3
     -2.66730783925205076960e-06 	 5 2 5 4
     -7.91632675866617594807e-05 	 5 2 5 5
      4.96169837258654987177e-06 	 5 2 6 1
     -4.40925742680341139666e-06 	 5 2 6 2
      3.55017974366949066664e-03 	 5 2 6 3
      1.07433356924819881084e-02 	 5 2 6 4
      9.49533678423852276808e-06 	 5 2 6 5
     -2.73590360301154758571e-02 	 5 2 6 6
     -4.68551525726126731619e-03 	 5 2 7 1
      6.14127989353967034501e-04 	 5 2 7 2
      2.03234951583249848217e-08 	 5 2 7 3
      1.27558987944226251746e-06 	 5 2 7 4
     -9.74507196539958070458e-03 	 5 2 7 5
      4.77985155140416841883e-06 	 5 2 7 6
     -2.21485620224206869455e-02 	 5 2 7 7
     -6.30848323765546663278e-03 	 5 2 8 1
      6.78239184775321010679e-03 	 5 2 8 2
      3.55541983428557867662e-07 	 5 2 8 3
      3.55001941333227102315e-06 	 5 2 8 4
     -4.42665483131574153276e-04 	 5 2 8 5
      1.06979351707004369430e-06 	 5 2 8 6
      2.28764294379959175207e-03 	 5 2 8 7
     -1.05598011223302888639e-02 	 5 2 8 8
     -5.95769137969224943499e-06 	 5 3 1 1
      2.22576728442283529961e-06 	 5 3 2 1
     -4.84933037750355247578e-06 	 5 3 2 2
      8.91480064886928935675e-02 	 5 3 3 1
      2.72133402646181944695e-02 	 5 3 3 2
      3.52191090274027170269e-06 	 5 3 3 3
     -1.14108436163682207265e-02 	 5 3 4 1
     -9.19810500627868572743e-03 	 5 3 4 2
      9.99985162507640483812e-06 	 5 3 4 3
     -4.20672629286970629783e-06 	 5 3 4 4
     -8.43199261770006099626e-07 	 5 3 5 1
      3.49449022626641957443e-07 	 5 3 5 2
      7.69310552111031331624e-02 	 5 3 5 3
     -8.90024792392829673660e-03 	 5 3 5 4
     -1.80625868797216907261e-06 	 5 3 5 5
      2.33004628286814872290e-03 	 5 3 6 1
      6.63497184526444256508e-03 	 5 3 6 2
      3.31577803186894123498e-05 	 5 3 6 3
     -3.77255491251308133373e-06 	 5 3 6 4
      5.67676476727098475346e-04 	 5 3 6 5
      1.16860664021054726532e-06 	 5 3 6 6
     -1.44375840120478787242e-07 	 5 3 7 1
      8.85309314525843378198e-07 	 5 3 7 2
     -2.19577200391717110295e-02 	 5 3 7 3
      7.16910337780750622078e-03 	 5 3 7 4
      2.63123199231732809249e-06 	 5 3 7 5
     -8.01388802314042039687e-03 	 5 3 7 6
     -6.57511790270481705203e-07 	 5 3 7 7
      1.82822753444251998338e-07 	 5 3 8 1
     -2.73289093001534193152e-06 	 5 3 8 2
     -4.25787319921720752713e-02 	 5 3 8 3
      4.89182214210565763368e-03 	 5 3 8 4
      1.08031799402856714313e-06 	 5 3 8 5
     -4.80325584498476638312e-03 	 5 3 8 6
      8.07195880118161161034e-07 	 5 3 8 7
     -1.36917500284013800352e-06 	 5 3 8 8
      1.90947470403190703973e-05 	 5 4 1 1
      7.46641012473195259553e-07 	 5 4 2 1
     -7.48332135618348084829e-06 	 5 4 2 2
     -1.08555669437999345595e-02 	 5 4 3 1
     -3.80999766802550283301e-03 	 5 4 3 2
      1.94098592595418249448e-05 	 5 4 3 3
      4.05233896434870847353e-03 	 5 4 4 1
     -7.91402357025279383496e-03 	 5 4 4 2
     -5.91424058639651698709e-06 	 5 4 4 3
     -5.52835889396935651642e-06 	 5 4 4 4
      3.25176781367165431376e-06 	 5 4 5 1
     -2.66730783925101611886e-06 	 5 4 5 2
     -8.90024792392829326715e-03 	 5 4 5 3
      9.58325653688058692881e-03 	 5 4 5 4
      8.60996901523912130287e-06 	 5 4 5 5
     -3.86357612358511834372e-03 	 5 4 6 1
      9.79841593952786478472e-03 	 5 4 6 2
     -4.15433947617559398019e-06 	 5 4 6 3
     -1.26895989895789843477e-05 	 5 4 6 4
     -3.37919609022744584989e-03 	 5 4 6 5
     -1.22676816003283561788e-06 	 5 4 6 6
     -7.47967199253707646735e-07 	 5 4 7 1
      9.85666420479113302357e-08 	 5 4 7 2
      3.15811503680584262921e-03 	 5 4 7 3
      1.04717740112754385817e-02 	 5 4 7 4
      1.56539498281993751150e-06 	 5 4 7 5
     -6.19909481433061730626e-03 	 5 4 7 6
      3.77253745979312176022e-06 	 5 4 7 7
      1.03677854082831293150e-06 	 5 4 8 1
     -1.10952197499887877718e-05 	 5 4 8 2
      5.97262851082124707203e-03 	 5 4 8 3
      2.00835345367789521245e-03 	 5 4 8 4
     -1.01759279630410609356e-05 	 5 4 8 5
      5.32602242966462302576e-03 	 5 4 8 6
     -4.10389263773079638974e-06 	 5 4 8 7
      1.91979743421813298819e-07 	 5 4 8 8
      3.17755344186693933217e-01 	 5 5 1 1
      1.81164552551962843019e-02 	 5 5 2 1
      2.05704953616099167624e-01 	 5 5 2 2
     -2.03534958909095576345e-08 	 5 5 3 1
      3.59320933070598875722e-06 	 5 5 3 2
      2.90719694130519457076e-01 	 5 5 3 3
      6.56703454500277766451e-06 	 5 5 4 1
      6.77908151559563610479e-06 	 5 5 4 2
     -1.70792040095830086055e-02 	 5 5 4 3
      1.85519636804031440303e-01 	 5 5 4 4
     -2.57714653973951206278e-02 	 5 5 5 1
     -7.91632675866799605247e-05 	 5 5 5 2
     -1.80625868799625000754e-06 	 5 5 5 3
      8.60996901523817093191e-06 	 5 5 5 4
      2.64343657293570843958e-01 	 5 5 5 5
     -1.22013243978594443693e-05 	 5 5 6 1
      6.15443820429879848377e-06 	 5 5 6 2
      3.81479717478004675194e-03 	 5 5 6 3
     -1.09155542319160966253e-02 	 5 5 6 4
      2.85276628254726051916e-05 	 5 5 6 5
      1.85855641457384174187e-01 	 5 5 6 6
      1.15149649801221994755e-02 	 5 5 7 1
      1.04686949382478567544e-02 	 5 5 7 2
      1.52822888438410000244e-06 	 5 5 7 3
      6.89959544369099472317e-06 	 5 5 7 4
     -2.59076607934203700934e-02 	 5 5 7 5
     -2.21434245630346697887e-05 	 5 5 7 6
      2.00667669117218144814e-01 	 5 5 7 7
      3.65937285525042141007e-03 	 5 5 8 1
     -1.96499322346254806648e-02 	 5 5 8 2
     -1.25647976988268958792e-06 	 5 5 8 3
     -1.29156551005024760719e-05 	 5 5 8 4
     -3.68033163350832415173e-02 	 5 5 8 5
     -2.18335428299825688920e-05 	 5 5 8 6
     -3.14650728243235809287e-03 	 5 5 8 7
      2.09684452821219807772e-01 	 5 5 8 8
     -2.41242242720125599578e-05 	 6 1 1 1
     -8.06700337239714025404e-07 	 6 1 2 1
      1.82948772949164976572e-06 	 6 1 2 2
      2.27128759472826390400e-03 	 6 1 3 1
      1.43731362635549737503e-03 	 6 1 3 2
      1.61540696181450719256e-05 	 6 1 3 3
     -2.18893924365374083554e-03 	 6 1 4 1
      5.99750722756344206016e-03 	 6 1 4 2
     -1.89118539428476141587e-06 	 6 1 4 3
      5.72806641707279495651e-07 	 6 1 4 4
      2.83367506191122640728e-05 	 6 1 5 1
      4.96169837258766456713e-06 	 6 1 5 2
      2.33004628286814959026e-03 	 6 1 5 3
     -3.86357612358511704267e-03 	 6 1 5 4
     -1.22013243978622768475e-05 	 6 1 5 5
      2.50843434466365517929e-03 	 6 1 6 1
     -6.52447287442311455591e-03 	 6 1 6 2
      2.18999067809648600855e-06 	 6 1 6 3
     -1.28354546296720302522e-06 	 6 1 6 4
      2.87281817714294838637e-03 	 6 1 6 5
     -1.75800019362279569600e-06 	 6 1 6 6
     -9.88555718086283175363e-06 	 6 1 7 1
     -5.09118830531120656431e-06 	 6 1 7 2
     -1.08183164075126617663e-03 	 6 1 7 3
     -5.71601694815346891149e-03 	 6 1 7 4
      2.50434494030206578305e-06 	 6 1 7 5
      4.75824493970534567050e-03 	 6 1 7 6
     -5.23838318355947985845e-06 	 6 1 7 7
     -1.17930825157597419682e-05 	 6 1 8 1
      1.68501745385813104631e-06 	 6 1 8 2
     -1.58396786018230161658e-03 	 6 1 8 3
     -1.75898821385680814234e-04 	 6 1 8 4
      1.02089013681077236199e-06 	 6 1 8 5
     -5.50918717558451201573e-04 	 6 1 8 6
     -1.09253446321834994620e-07 	 6 1 8 7
     -4.12056657448952836286e-06 	 6 1 8 8
     -5.72658633282721271120e-06 	 6 2 1 1
      6.11648093044641672395e-06 	 6 2 2 1
     -2.08401774977183262556e-05 	 6 2 2 2
      8.62474816102759209158e-03 	 6 2 3 1
      4.99780368416785593030e-04 	 6 2 3 2
      4.27704858409556557794e-06 	 6 2 3 3
      5.92805381836456618538e-03 	 6 2 4 1
     -2.32191998570590654727e-02 	 6 2 4 2
     -2.80820280707317706007e-06 	 6 2 4 3
     -5.12299049445023056487e-06 	 6 2 4 4
      6.32509345281258769374e-06 	 6 2 5 1
     -4.40925742680576784232e-06 	 6 2 5 2
      6.63497184526445297342e-03 	 6 2 5 3
      9.79841593952785264166e-03 	 6 2 5 4
      6.15443820429932618530e-06 	 6 2 5 5
     -6.52447287442311021910e-03 	 6 2 6 1
      2.36105704700980655042e-02 	 6 2 6 2
      3.59908157886200199641e-06 	 6 2 6 3
      1.77402090107292863307e-05 	 6 2 6 4
     -1.32334698271625150062e-02 	 6 2 6 5
      1.83404578454291910286e-06 	 6 2 6 6
     -2.56591644272092922390e-06 	 6 2 7 1
      1.11945053215796240753e-05 	 6 2 7 2
     -2.49078815990112416659e-05 	 6 2 7 3
      1.97361044956328723909e-02 	 6 2 7 4
      4.46989018150118603987e-06 	 6 2 7 5
     -2.35811268684361710624e-02 	 6 2 7 6
     -2.16788255577221956733e-06 	 6 2 7 7
     -5.02630430188362295794e-06 	 6 2 8 1
     -1.29157143952414599564e-06 	 6 2 8 2
     -2.85910062559027343052e-03 	 6 2 8 3
     -4.95149772524173734101e-03 	 6 2 8 4
      6.92738923339365619142e-06 	 6 2 8 5
     -4.72517655847109942918e-03 	 6 2 8 6
      1.76328799636841167839e-05 	 6 2 8 7
     -1.13760168830415624796e-08 	 6 2 8 8
      6.05647812221533736465e-03 	 6 3 1 1
      3.60776998345521291919e-03 	 6 3 2 1
     -3.46669246475497317209e-03 	 6 3 2 2
      3.85740797779683775395e-05 	 6 3 3 1
      1.13316254574792728163e-05 	 6 3 3 2
      1.22744927624147941864e-02 	 6 3 3 3
     -3.64800942502181432009e-06 	 6 3 4 1
     -8.39694474112193082354e-06 	 6 3 4 2
     -1.51781986938904806146e-03 	 6 3 4 3
     -3.62761970780703813660e-03 	 6 3 4 4
      3.23633250765457611275e-03 	 6 3 5 1
      3.55017974366948979928e-03 	 6 3 5 2
      3.31577803186890667604e-05 	 6 3 5 3
     -4.15433947617595227512e-06 	 6 3 5 4
      3.81479717478004848666e-03 	 6 3 5 5
      2.18999067809613406636e-06 	 6 3 6 1
      3.59908157886105416654e-06 	 6 3 6 2
      1.24453261778471120820e-03 	 6 3 6 3
      1.87954258555347885652e-03 	 6 3 6 4
      2.55840152072958922945e-06 	 6 3 6 5
     -6.52206398332493778730e-03 	 6 3 6 6
     -4.72044475981625826898e-04 	 6 3 7 1
      1.20250357138366401879e-04 	 6 3 7 2
     -9.21968540731064267150e-06 	 6 3 7 3
      3.55914463629900312811e-06 	 6 3 7 4
     -3.82345039004339205466e-03 	 6 3 7 5
     -5.64191676784739852530e-06 	 6 3 7 6
     -4.74220307678094657455e-03 	 6 3 7 7
     -2.84726831007069310087e-03 	 6 3 8 1
      7.38110839029199462639e-04 	 6 3 8 2
     -1.83925863824246919778e-05 	 6 3 8 3
      9.40672177149731841478e-07 	 6 3 8 4
     -2.40052094142042529365e-03 	 6 3 8 5
     -4.99099744997100014485e-06 	 6 3 8 6
      1.27137497659382363302e-03 	 6 3 8 7
     -2.68669023206306260138e-03 	 6 3 8 8
     -3.23379691667618970885e-02 	 6 4 1 1
      7.13471264639379317701e-03 	 6 4 2 1
     -1.62990700578725458691e-02 	 6 4 2 2
     -3.23383558140917161557e-06 	 6 4 3 1
     -6.24033825952521227910e-06 	 6 4 3 2
     -2.38617750536923925453e-02 	 6 4 3 3
      4.76634808064077314973e-06 	 6 4 4 1
     -2.67545139418314872339e-05 	 6 4 4 2
      5.74000065051485930390e-03 	 6 4 4 3
     -1.62574529524351415327e-03 	 6 4 4 4
      1.25734376440336272345e-04 	 6 4 5 1
      1.07433356924820002515e-02 	 6 4 5 2
     -3.77255491250559059786e-06 	 6 4 5 3
     -1.26895989895892181997e-05 	 6 4 5 4
     -1.09155542319161226461e-02 	 6 4 5 5
     -1.28354546297133824006e-06 	 6 4 6 1
      1.77402090107484631566e-05 	 6 4 6 2
      1.87954258555347582076e-03 	 6 4 6 3
      4.68217848728363986166e-02 	 6 4 6 4
     -1.04287039963016033207e-05 	 6 4 6 5
     -2.74687482150108705156e-03 	 6 4 6 6
     -2.26891796815752427169e-03 	 6 4 7 1
      1.21443658561128861595e-02 	 6 4 7 2
      1.05642064330188061925e-06 	 6 4 7 3
     -6.02248906090685979370e-06 	 6 4 7 4
     -5.64995715170053380144e-03 	 6 4 7 5
      4.02206648526579922730e-06 	 6 4 7 6
     -2.04992238179087828132e-02 	 6 4 7 7
     -7.44656499750832347184e-03 	 6 4 8 1
      2.23549998086346318749e-02 	 6 4 8 2
      2.64403738593094214294e-06 	 6 4 8 3
     -1.20006598088466789258e-06 	 6 4 8 4
      2.28736268492783639816e-02 	 6 4 8 5
      1.39389670821612315503e-05 	 6 4 8 6
      2.44065702566132192164e-02 	 6 4 8 7
      5.04446441044663698716e-03 	 6 4 8 8
      7.68468136485396866161e-05 	 6 5 1 1
      1.40315606396630612984e-05 	 6 5 2 1
     -6.69177351700424151659e-06 	 6 5 2 2
      4.45021057187535719855e-04 	 6 5 3 1
      1.93921094486074088552e-03 	 6 5 3 2
      7.13129933497877043121e-05 	 6 5 3 3
     -6.09311896300753549210e-03 	 6 5 4 1
      1.94790426211194321604e-02 	 6 5 4 2
     -1.35096242381690366958e-05 	 6 5 4 3
     -2.99083760948205484658e-05 	 6 5 4 4
     -9.37665640494151627704e-06 	 6 5 5 1
      9.49533678422862772919e-06 	 6 5 5 2