14
Step 0  E=-436.5195072136  phi=146.076  theta=71.511
C  -1.8807309689  1.1910377078 -0.1057861947
C  -0.4795412748  1.2078660029 -0.0932756312
C   0.1966848756  0.0146411896  0.0023737507
C  -2.5645064255 -0.0217807163 -0.0468648008
H  -2.4292276468  2.0965399698 -0.2136242193
H   0.0529679051  2.1209878197 -0.1415361389
H  -3.6638692815 -0.0426657970 -0.0406472269
N   1.6492135255  0.0160958212  0.0161346601
O   2.2129911266 -1.0522624106  0.1056236769
O   2.2119336976  1.0850719382 -0.0346670829
C  -1.8804864170 -1.1895486853  0.0576930965
H  -2.4224574196 -2.1432969673  0.0990279944
C  -0.4821174623 -1.2378539305  0.0660242963
H   0.0887938914 -2.1170430491  0.1623129155
14
Step 1  E=-436.5050196644  phi=146.650  theta=71.843
C  -1.8756418297  1.1924302789 -0.0920275371
C  -0.4611426739  1.2079217997 -0.0909292917
C   0.2159772097  0.0276308785  0.0015718907
C  -2.5593348923 -0.0240329941 -0.0476457846
H  -2.4213760548  2.0670157704 -0.2297103995
H   0.0456921675  2.1124918247 -0.1320834210
H  -3.6629843274 -0.0582266515 -0.0161583122
N   1.6455847037  0.0196464664  0.0027912716
O   2.2041920765 -1.0472706730  0.0958225079
O   2.2156299792  1.0804464745 -0.0331593035
C  -1.8894277794 -1.1624425996  0.0628996559
H  -2.4362755840 -2.1270125686  0.0885085026
C  -0.4806844615 -1.2598511931  0.0539250331
H   0.0910023591 -2.1062849989  0.1701383952
14
Step 2  E=-436.4839687678  phi=147.221  theta=72.164
C  -1.8704453052  1.1934559110 -0.0785333532
C  -0.4435979444  1.2078396253 -0.0885144866
C   0.2346274363  0.0397827277  0.0007440670
C  -2.5550463426 -0.0252319390 -0.0483431562
H  -2.4114722146  2.0369665741 -0.2445775509
H   0.0415895346  2.1086669926 -0.1230120866
H  -3.6516080959 -0.0730570979  0.0073070708
N   1.6424308984  0.0228427247 -0.0104287832
O   2.1951760440 -1.0421826491  0.0860256821
O   2.2193314918  1.0760454693 -0.0317067618
C  -1.8977252931 -1.1366893034  0.0680642382
H  -2.4486041886 -2.1077957569  0.0784309983
C  -0.4795712229 -1.2803568594  0.0418800987
H   0.0959460894 -2.1017101583  0.1783003224
14
Step 3  E=-436.4604251179  phi=147.771  theta=72.474
C  -1.8648902374  1.1937911224 -0.0653611746
C  -0.4272070732  1.2075833791 -0.0860018461
C   0.2523839984  0.0507483955 -0.0001356072
C  -2.5518019725 -0.0249067482 -0.0488931516
H  -2.4014465876  2.0103801106 -0.2583531823
H   0.0418828173  2.1115257960 -0.1144839950
H  -3.6305230798 -0.0865481003  0.0291703531
N   1.6398432293  0.0257001309 -0.0234843800
O   2.1859900858 -1.0371044016  0.0762282615
O   2.2230829690  1.0719655054 -0.0303271550
C  -1.9049708237 -1.1130104071  0.0731727141
H  -2.4592429958 -2.0850969679  0.0690715632
C  -0.4789482747 -1.2988065980  0.0299008742
H   0.1048644146 -2.1058490924  0.1870974887
14
Step 4  E=-436.4380329437  phi=148.285  theta=72.774
C  -1.8587543273  1.1931643103 -0.0525500509
C  -0.4121816612  1.2072091601 -0.0833681545
C   0.2690103054  0.0602569140 -0.0010948137
C  -2.5496583510 -0.0226091193 -0.0492480944
H  -2.3931463685  1.9909367469 -0.2713740094
H   0.0470552780  2.1218246225 -0.1065912687
H  -3.6018277256 -0.0981053288  0.0489689451
N   1.6379173359  0.0282463039 -0.0363378574
O   2.1766892264 -1.0321495171  0.0664249916
O   2.2269285226  1.0682950892 -0.0290365613
C  -1.9107648123 -1.0920720938  0.0782149054
H  -2.4681811373 -2.0588599844  0.0607204744
C  -0.4789006211 -1.3148610516  0.0180161551
H   0.1179225510 -2.1194268609  0.1966759372
14
Step 5  E=-436.4184833590  phi=148.748  theta=73.067
C  -1.8519027601  1.1914411819 -0.0401425853
C  -0.3986329204  1.2068788055 -0.0805952335
C   0.2842815518  0.0681089381 -0.0021612346
C  -2.5485330583 -0.0179592498 -0.0493775418
H  -2.3876785438  1.9810365932 -0.2839059819
H   0.0567739725  2.1387873560 -0.0993676760
H  -3.5689817716 -0.1072023598  0.0664371085
N   1.6367477320  0.0305209331 -0.0489552033
O   2.1673367348 -1.0274378522  0.0566103604
O   2.2309102757  1.0651124605 -0.0278495376
C  -1.9147490169 -1.0744287711  0.0831808080
H  -2.4755935839 -2.0295358772  0.0536583957
C  -0.4793956441 -1.3284144808  0.0062854741
H   0.1339682889 -2.1411701991  0.2068348311
14
Step 6  E=-436.4017154670  phi=149.146  theta=73.352
C  -1.8443304977  1.1886842611 -0.0282117110
C  -0.3865823566  1.2068306864 -0.0776675695
C   0.2979845334  0.0741719020 -0.0033617093
C  -2.5481820580 -0.0106914059 -0.0492674430
H  -2.3849116375  1.9811113468 -0.2958042497
H   0.0700665083  2.1603504542 -0.0928129553
H  -3.5366995885 -0.1134487932  0.0815781403
N   1.6364209385  0.0325752949 -0.0613060309
O   2.1580038834 -1.0230938315  0.0467786808
O   2.2350671233  1.0624839137 -0.0267792774
C  -1.9166361697 -1.0604679483  0.0880547664
H  -2.4818415316 -1.9980793614  0.0481351330
C  -0.4803055858 -1.3395388212 -0.0052009451
H   0.1508588392 -2.1683669260  0.2170004451
14
Step 7  E=-436.3876443104  phi=149.468  theta=73.631
C  -1.8361576369  1.1851474983 -0.0168723922
C  -0.3759860355  1.2073222201 -0.0745703177
C   0.3099206330  0.0783759145 -0.0047221711
C  -2.5482196358 -0.0006909603 -0.0489150682
H  -2.3834912632  1.9896749398 -0.3063517680
H   0.0856364385  2.1837676859 -0.0869138744
H  -3.5104143176 -0.1166376962  0.0946756725
N   1.6370079481  0.0344710630 -0.0733632734
O   2.1487687711 -1.0192441818  0.0369241515
O   2.2394336712  1.0604626973 -0.0258377778
C  -1.9162324085 -1.0503689001  0.0928098843
H  -2.4874720456 -1.9659185667  0.0443508811
C  -0.4814607889 -1.3483997881 -0.0163351304
H   0.1660998754 -2.1977624281  0.2263656848
14
Step 8  E=-436.3774397976  phi=149.705  theta=73.903
C  -1.8275794026  1.1812127149 -0.0062686892
C  -0.3667589693  1.2085730510 -0.0712885111
C   0.3199109877  0.0807097813 -0.0062680056
C  -2.5482087259  0.0119824532 -0.0483153414
H  -2.3813559476  2.0040480632 -0.3143940153
H   0.1021577950  2.2062426659 -0.0816536155
H  -3.4950807145 -0.1167037917  0.1061661731
N   1.6385566419  0.0362781923 -0.0851025893
O   2.1397146265 -1.0160149235  0.0270409103
O   2.2440394142  1.0590884098 -0.0250359913
C  -1.9134488702 -1.0440891432  0.0974050744
H  -2.4931991967 -1.9348704273  0.0424416831
C  -0.4826979985 -1.3551873692 -0.0270075391
H   0.1774083535 -2.2262928366  0.2340774949
14
Step 9  E=-436.3727452022  phi=149.851  theta=74.167
C  -1.8188028115  1.1773115066  0.0034531384
C  -0.3587920729  1.2107287875 -0.0678073620
C   0.3278038292  0.0812161869 -0.0080246385
C  -2.5478050095  0.0270865175 -0.0474384869
H  -2.3763899668  2.0212535386 -0.3186461970
H   0.1184637489  2.2253651727 -0.0770118983
H  -3.4935437090 -0.1135514652  0.1163576582
N   1.6410849366  0.0380716580 -0.0965015171
O   2.1309277130 -1.0135274078  0.0171230373
O   2.2489081960  1.0583868194 -0.0243839442
C  -1.9083020627 -1.0413852771  0.1017857918
H  -2.4998376587 -1.9069629260  0.0424741906
C  -0.4838864967 -1.3600771894 -0.0371186262
H   0.1830149388 -2.2514654139  0.2393741589
14
Step 10  E=-436.3739250533  phi=149.902  theta=74.423
C  -1.8099992743  1.1738673687  0.0121689838
C  -0.3519623343  1.2138468152 -0.0641130887
C   0.3334825830  0.0799855741 -0.0100181037
C  -2.5468747280  0.0442072569 -0.0462116478
H  -2.3668899694  2.0386639765 -0.3179751789
H   0.1336318890  2.2393196228 -0.0729616134
H  -3.5053944608 -0.1068486613  0.1251515935
N   1.6445757280  0.0399271396 -0.1075384430
O   2.1224944861 -1.0118937380  0.0071645030
O   2.2540579277  1.0583699681 -0.0238908186
C  -1.9009078867 -1.0418661521  0.1058876168
H  -2.5081610768 -1.8841422001  0.0444566988
C  -0.4849346705 -1.3632165739 -0.0465844597
H   0.1817456997 -2.2714627247  0.2416511550
14
Step 11  E=-436.3797573644  phi=149.859  theta=74.668
C  -1.8012816563  1.1712641858  0.0197910839
C  -0.3461396008  1.2178971926 -0.0601939012
C   0.3368736016  0.0771488059 -0.0122753857
C  -2.5455039965  0.0627980853 -0.0445223928
H  -2.3517726082  2.0543153155 -0.3115626200
H   0.1470073091  2.2469406557 -0.0694658921
H  -3.5272017027 -0.0959831445  0.1320011908
N   1.6489746421  0.0419155306 -0.1181915147
O   2.1144985132 -1.0112115273 -0.0028409429
O   2.2595005053  1.0590365136 -0.0235650030
C  -1.8914747183 -1.0450649880  0.1096409007
H  -2.5186852060 -1.8679024903  0.0483676094
C  -0.4857857056 -1.3647229122 -0.0553387143
H   0.1729949169 -2.2851137870  0.2404794185
14
Step 12  E=-436.3885319413  phi=149.727  theta=74.903
C  -1.7926999191  1.1698304360  0.0262734090
C  -0.3411929019  1.2227705851 -0.0560409832
C   0.3379522145  0.0728691582 -0.0148243874
C  -2.5439090856  0.0822428327 -0.0422446478
H  -2.3306088154  2.0669997238 -0.2989639849
H   0.1582032000  2.2477022238 -0.0664770531
H  -3.5539033632 -0.0802402675  0.1361356636
N   1.6541912363  0.0440965338 -0.1284377038
O   2.1070172885 -1.0115582757 -0.0128999475
O   2.2652418365  1.0603722583 -0.0234141131
C  -1.8802975865 -1.0505094863  0.1129754673
H  -2.5314341543 -1.8589594410  0.0541889513
C  -0.4864098305 -1.3646852144 -0.0633335967
H   0.1566734781 -2.2918387249  0.2356053987
14
Step 13  E=-436.3987807971  phi=149.513  theta=75.128
C  -1.7842464859  1.1698278287  0.0316122193
C  -0.3369977280  1.2282875227 -0.0516493509
C   0.3367458740  0.0673342902 -0.0176934206
C  -2.5423283245  0.1019225638 -0.0392688384
H  -2.3035871094  2.0762714480 -0.2801120138
H   0.1671036225  2.2416968891 -0.0639376152
H  -3.5803291155 -0.0590515388  0.1368511929
N   1.6601037259  0.0465119323 -0.1382522274
O   2.1001191669 -1.0129858775 -0.0230197489
O   2.2712819096  1.0623508223 -0.0234449913
C  -1.8677497165 -1.0577702836  0.1158257712
H  -2.5457980790 -1.8571169416  0.0619234439
C  -0.4867973765 -1.3631641773 -0.0705411770
H   0.1331752337 -2.2916225345  0.2269522917
14
Step 14  E=-436.4091884287  phi=149.227  theta=75.341
C  -1.7758654909  1.1714388538  0.0358444556
C  -0.3334441761  1.2342065823 -0.0470184957
C   0.3333337839  0.0607486539 -0.0209101979
C  -2.5409522273  0.1212687938 -0.0355210854
H  -2.2714647956  2.0824453862 -0.2552986362
H   0.1738785459  2.2296281807 -0.0617832889
H  -3.6021567679 -0.0321581481  0.1336970806
N   1.6665666820  0.0491794587 -0.1476084848
O   2.0938607512 -1.0155159101 -0.0332083242
O   2.2776148552  1.0649344158 -0.0236637017
C  -1.8542660362 -1.0664787721  0.1181367811
H  -2.5605700166 -1.8613943307  0.0715825289
C  -0.4869546372 -1.3601886715 -0.0769555823
H   0.1033721076 -2.2850389111  0.2146308764
14
Step 15  E=-436.4183838574  phi=148.881  theta=75.543
C  -1.7674638925  1.1747525575  0.0390446643
C  -0.3304449714  1.2402316664 -0.0421527605
C   0.3278433618  0.0533265576 -0.0245004248
C  -2.5398938968  0.1397975826 -0.0309693639
H  -2.2355185115  2.0866068474 -0.2251430361
H   0.1790083149  2.2128096283 -0.0599479116
H  -3.6162840902  0.0003403159  0.1265356082
N   1.6734206424  0.0520882830 -0.1564785734
O   2.0882851936 -1.0191363027 -0.0434744494
O   2.2842289900  1.0680746867 -0.0240755340
C  -1.8403188252 -1.0763190121  0.1198694775
H  -2.5741537525 -1.8703377571  0.0831539717
C  -0.4869023830 -1.3557489544 -0.0825956930
H   0.0686273663 -2.2733196267  0.1989578518
14
Step 16  E=-436.4251000496  phi=148.491  theta=75.733
C  -1.7589256906  1.1797534157  0.0413194084
C  -0.3279413645  1.2460213048 -0.0370614718
C   0.3204443832  0.0452859065 -0.0284862303
C  -2.5391793024  0.1571289741 -0.0256219198
H  -2.1974689500  2.0905913620 -0.1905310463
H   0.1833005683  2.1931363763 -0.0583699994
H  -3.6208906607  0.0380065686  0.1155297853
N   1.6805022764  0.0551971475 -0.1648343327
O   2.0834214149 -1.0238001548 -0.0538275720
O   2.2911068568  1.0717135904 -0.0246850370
C  -1.8263908884 -1.0870091835  0.1210046290
H  -2.5848462343 -1.8823633666  0.0965696687
C  -0.4866752321 -1.3497893574 -0.0875070803
H   0.0307929418 -2.2584345648  0.1804678067
14
Step 17  E=-436.4287264669  phi=148.071  theta=75.912
C  -1.7501323380  1.1863242129  0.0427972225
C  -0.3259038795  1.2512051549 -0.0317589049
C   0.3113410930  0.0368426944 -0.0328845973
C  -2.5387411827  0.1729950495 -0.0195225208
H  -2.1593309463  2.0968332748 -0.1525012316
H   0.1878655164  2.1729686862 -0.0569992733
H  -3.6154267295  0.0801127253  0.1011061595
N   1.6876538460  0.0584356282 -0.1726487373
O   2.0792843917 -1.0294269435 -0.0642774898
O   2.2982252922  1.0757842634 -0.0254960949
C  -1.8129531667 -1.0982838808  0.1215438958
H  -2.5910886659 -1.8960172783  0.1116884726
C  -0.4863175013 -1.3422072507 -0.0917606257
H  -0.0078670241 -2.2430950300  0.1598895035
14
Step 18  E=-436.4298869290  phi=147.635  theta=76.081
C  -1.7409905009  1.1942748470  0.0436137006
C  -0.3243242096  1.2554133206 -0.0262643162
C   0.3007641003  0.0282065217 -0.0377060333
C  -2.5384100811  0.1872382786 -0.0127447207
H  -2.1231449654  2.1079514660 -0.1120709354
H   0.1940021107  2.1548567266 -0.0557992322
H  -3.6006411663  0.1256997397  0.0839093758
N   1.6947310686  0.0617084503 -0.1798974408
O   2.0758763944 -1.0359060676 -0.0748338527
O   2.3055556002  1.0802119216 -0.0265120448
C  -1.8004492333 -1.1098838568  0.1215088175
H  -2.5916344004 -1.9101211671  0.1282958482
C  -0.4858694664 -1.3328718063 -0.0954443828
H  -0.0448956659 -2.2305304486  0.1380459957
14
Step 19  E=-436.4302985756  phi=147.198  theta=76.239
C  -1.7314642265  1.2034037696  0.0438958344
C  -0.3231954642  1.2583216474 -0.0206024809
C   0.2889632342  0.0195776859 -0.0429537484
C  -2.5379055295  0.1997990083 -0.0053847898
H  -2.0906105005  2.1260263941 -0.0700523550
H   0.2029614702  2.1410786703 -0.0547404293
H  -3.5786435437  0.1736606446  0.0647399982
N   1.7016088996  0.0649022488 -0.1865602736
O   2.0731888645 -1.0431023105 -0.0855055345
O   2.3130638700  1.0849147828 -0.0277358219
C  -1.7892840433 -1.1215515659  0.1209383009
H  -2.5856377990 -1.9238298651  0.1461149944
C  -0.4853424989 -1.3216742712 -0.0986470072
H  -0.0780348719 -2.2238882426  0.1156602554
14
Step 20  E=-436.4315502608  phi=146.774  theta=76.386
C  -1.7215992921  1.2135740597  0.0437549161
C  -0.3224841122  1.2597047522 -0.0148048736
C   0.2762013856  0.0111463154 -0.0486232682
C  -2.5368393436  0.2106915125  0.0024479747
H  -2.0627533566  2.1517784107 -0.0269730996
H   0.2156184215  2.1330851443 -0.0537812947
H  -3.5528766187  0.2228662834  0.0444571944
N   1.7081850579  0.0678936555 -0.1926224703
O   2.0712046658 -1.0508624897 -0.0962999889
O   2.3207114263  1.0898050760 -0.0291701135
C  -1.7798133173 -1.1330307627  0.1198853340
H  -2.5726948858 -1.9366432014  0.1648245575
C  -0.4846919913 -1.3086063535 -0.1014375132
H  -0.1056856112 -2.2252988226  0.0931253081
14
Step 21  E=-436.4339089395  phi=146.373  theta=76.523
C  -1.7115245811  1.2247624935  0.0432941240
C  -0.3221051045  1.2594765053 -0.0089108862
C   0.2627498854  0.0030936037 -0.0547023950
C  -2.5347516131  0.2199722903  0.0106440172
H  -2.0398078162  2.1841090422  0.0168146820
H   0.2321784552  2.1310825153 -0.0528422886
H  -3.5277551823  0.2723246976  0.0238431304
N   1.7143815841  0.0705576977 -0.1980755117
O   2.0699002633 -1.0590225850 -0.1072226616
O   2.3284554305  1.0947901423 -0.0308174899
C  -1.7723301604 -1.1440674276  0.1184127786
H  -2.5528654583 -1.9484050208  0.1840814794
C  -0.4838087608 -1.2938325403 -0.1038534023
H  -0.1271970510 -2.2350213003  0.0703843956
14
Step 22  E=-436.4365470667  phi=146.005  theta=76.649
C  -1.7014269669  1.2370502006  0.0426244914
C  -0.3219144141  1.2576976920 -0.0029677776
C   0.2488856826 -0.0044053033 -0.0611715677
C  -2.5311995112  0.2277116830  0.0191059569
H  -2.0213702544  2.2203431417  0.0609116510
H   0.2520802136  2.1339890417 -0.0517883972
H  -3.5077224033  0.3212966806  0.0034752578
N   1.7201448623  0.0727754415 -0.2029175615
O   2.0692476631 -1.0674145798 -0.1182765584
O   2.3362495741  1.0997736786 -0.0326804839
C  -1.7670473887 -1.1544099314  0.1165877722
H  -2.5266908328 -1.9593067159  0.2035502447
C  -0.4825447195 -1.2777074714 -0.1059063147
H  -0.1427923720 -2.2512438268  0.0470312012
14
Step 23  E=-436.4384850860  phi=145.680  theta=76.764
C  -1.6915130956  1.2505651833  0.0418753007
C  -0.3217241150  1.2545482155  0.0029715508
C   0.2348898506 -0.0111781054 -0.0680046449
C  -2.5258880008  0.2339850499  0.0277525481
H  -2.0066952889  2.2570123506  0.1047086064
H   0.2741519344  2.1397916952 -0.0504325935
H  -3.4958158568  0.3692321572 -0.0162929692
N   1.7254444530  0.0744401896 -0.2071535220
O   2.0692159668 -1.0758725001 -0.1294619809
O   2.3440448751  1.1046571206 -0.0347616228
C  -1.7640783218 -1.1638076508  0.1144747725
H  -2.4952001168 -1.9698958997  0.2229396981
C  -0.4807634055 -1.2607253453 -0.1076000305
H  -0.1532060913 -2.2706923200  0.0225641745
14
Step 24  E=-436.4388659919  phi=145.404  theta=76.871
C  -1.6819765382  1.2654153849  0.0411918217
C  -0.3213318626  1.2502809272  0.0088523607
C   0.2210465443 -0.0170531276 -0.0751701810
C  -2.5187759797  0.2388884768  0.0365087756
H  -1.9949647266  2.2907023306  0.1473716448
H   0.2969249970  2.1460962485 -0.0485591126
H  -3.4924744089  0.4154875646 -0.0351843410
N   1.7302710175  0.0754618675 -0.2107947849
O   2.0697725657 -1.0842373383 -0.1407764377
O   2.3517907049  1.1093411410 -0.0370634118
C  -1.7634240071 -1.1720091867  0.1121284397
H  -2.4598751178 -1.9810705235  0.2420447508
C  -0.4783885284 -1.2434390240 -0.1089463927
H  -0.1592923862 -2.2896056589 -0.0033821587
14
Step 25  E=-436.4370931905  phi=145.185  theta=76.971
C  -1.6729791963  1.2816420703  0.0407244840
C  -0.3205517207  1.2451784299  0.0146220253
C   0.2076413580 -0.0218590450 -0.0826332219
C  -2.5100797017  0.2425599809  0.0452902024
H  -1.9854518467  2.3186265943  0.1879384208
H   0.3189460542  2.1506188635 -0.0459531518
H  -3.4954775860  0.4590333509 -0.0527859253
N   1.7346335453  0.0757694836 -0.2138587785
O   2.0708841096 -1.0923607799 -0.1522147261
O   2.3594356482  1.1137273248 -0.0395881911
C  -1.7649764634 -1.1787642218  0.1095885712
H  -2.4225296560 -1.9940128115  0.2607804757
C  -0.4754308508 -1.2263936856 -0.1099712023
H  -0.1617844967 -2.3045359291 -0.0309344030
14
Step 26  E=-436.4334134808  phi=145.026  theta=77.066
C  -1.6646438358  1.2991991140  0.0406165638
C  -0.3192367369  1.2395246324  0.0202331541
C   0.1949581585 -0.0254278858 -0.0903574796
C  -2.5001728288  0.2451809043  0.0539968664
H  -1.9775945248  2.3388874387  0.2254487334
H   0.3389931391  2.1514918643 -0.0424239507
H  -3.5010435370  0.4984227756 -0.0684592837
N   1.7385562049  0.0753120398 -0.2163683820
O   2.0725172131 -1.1001079027 -0.1637691469
O   2.3669286873  1.1177197294 -0.0423379005
C  -1.7685428930 -1.1838346318  0.1068793450
H  -2.3850732421 -2.0100006087  0.2791816804
C  -0.4719903077 -1.2100904554 -0.1107119843
H  -0.1612154342 -2.3127628524 -0.0599903534
14
Step 27  E=-436.4290718757  phi=144.932  theta=77.162
C  -1.6570505485  1.3179487728  0.0409938533
C  -0.3172918281  1.2335910363  0.0256457150
C   0.1832741013 -0.0276017758 -0.0983079146
C  -2.4894610684  0.2469553611  0.0625209528
H  -1.9710219041  2.3505457688  0.2590604440
H   0.3561831489  2.1473954216 -0.0378177972
H  -3.5052197899  0.5320277871 -0.0814212405
N   1.7420747914  0.0740584013 -0.2183512584
O   2.0746388553 -1.1073590267 -0.1754298075
O   2.3742204815  1.1212263237 -0.0453139359
C  -1.7738863387 -1.1870194102  0.1040144760
H  -2.3491849331 -2.0300669777  0.2973415637
C  -0.4682408043 -1.1949718208 -0.1112127365
H  -0.1579300182 -2.3124035085 -0.0902797592
14
Step 28  E=-436.4255626359  phi=144.906  theta=77.260
C  -1.6502332227  1.3376631194  0.0419562630
C  -0.3146798570  1.2276324802  0.0308285639
C   0.1728524564 -0.0282443733 -0.1064532113
C  -2.4782975253  0.2480850353  0.0707600168
H  -1.9655709831  2.3536285642  0.2881422654
H   0.3700051638  2.1375867742 -0.0320231260
H  -3.5048231481  0.5583377512 -0.0908912983
N   1.7452328451  0.0719963616 -0.2198391394
O   2.0772168146 -1.1140108565 -0.1871850117
O   2.3812638695  1.1241605894 -0.0485169485
C  -1.7807676629 -1.1881892106  0.1010079332
H  -2.3160031449 -2.0545806685  0.3152973139
C  -0.4644057948 -1.1814130027 -0.1115192296
H  -0.1521248956 -2.3023787489 -0.1214298732
14
Step 29  E=-436.4236457172  phi=144.949  theta=77.366
C  -1.6441760565  1.3580249280  0.0435702206
C  -0.3114228041  1.2218865271  0.0357607471
C   0.1639331453 -0.0272570064 -0.1147679023
C  -2.4669484771  0.2487522158  0.0786275781
H  -1.9613116889  2.3491444433  0.3123559994
H   0.3803252638  2.1218891996 -0.0249702407
H  -3.4978135891  0.5761702055 -0.0962096824
N   1.7480778378  0.0691314973 -0.2208670867
O   2.0802200723 -1.1199772080 -0.1990217043
O   2.3880144452  1.1264427893 -0.0519465935
C  -1.7889710619 -1.1873149254  0.0978858599
H  -2.2859888447 -2.0829286080  0.3329103867
C  -0.4607317282 -1.1697093369 -0.1116755969
H  -0.1438821693 -2.2823591372 -0.1530190946
14
Step 30  E=-436.4229324484  phi=145.059  theta=77.484
C  -1.6388118162  1.3786282476  0.0458614117
C  -0.3075997627  1.2165724436  0.0404325575
C   0.1567224208 -0.0245967056 -0.1232334286
C  -2.4555884849  0.2491114299  0.0860590052
H  -1.9585820930  2.3391095694  0.3317367523
H   0.3873910421  2.1006790337 -0.0166288566
H  -3.4833356020  0.5847773431 -0.0969032860
N   1.7506576774  0.0654862051 -0.2214727627
O   2.0836188553 -1.1251894999 -0.2109259151
O   2.3944313870  1.1280007677 -0.0556013351
C  -1.7983049603 -1.1844724633  0.0946927246
H  -2.2590518512 -2.1134908701  0.3498020108
C  -0.4574651612 -1.1600567685 -0.1117220913
H  -0.1331826707 -2.2527555941 -0.1846212545
14
Step 31  E=-436.4222092525  phi=145.233  theta=77.617
C  -1.6340241969  1.3989852050  0.0488094399
C  -0.3033428920  1.2118879475  0.0448461366
C   0.1513830369 -0.0202935788 -0.1318377210
C  -2.4443035285  0.2492846237  0.0930141356
H  -1.9580152432  2.3265147357  0.3467550703
H   0.3918437539  2.0748850214 -0.0070045195
H  -3.4616631545  0.5838957677 -0.0927177592
N   1.7530177041  0.0610988900 -0.2216957682
O   2.0873846270 -1.1295970095 -0.2228831812
O   2.4004780126  1.1287705025 -0.0594782906
C  -1.8085852518 -1.1798200401  0.0914885668
H  -2.2348452677 -2.1439465860  0.3653872176
C  -0.4548358317 -1.1525262895 -0.1116932345
H  -0.1198932315 -2.2147742518 -0.2158515872
14
Step 32  E=-436.4201984871  phi=145.464  theta=77.768
C  -1.6296578552  1.4185514198  0.0523490159
C  -0.2988311464  1.2080036803  0.0490152928
C   0.1480269292 -0.0144629800 -0.1405732837
C  -2.4330913092  0.2493562881  0.0994783698
H  -1.9605100864  2.3150913935  0.3583067495
H   0.3947312035  2.0459882783  0.0038674143
H  -3.4341719197  0.5737817280 -0.0836368598
N   1.7551984065  0.0560231699 -0.2215770508
O   2.0914902707 -1.1331668813 -0.2348789577
O   2.4061220870  1.1286964790 -0.0635731116
C  -1.8196161882 -1.1735617502  0.0883404316
H  -2.2130474725 -2.1717412772  0.3789884699
C  -0.4530472225 -1.1470391320 -0.1116154669
H  -0.1037258245 -2.1705115125 -0.2464274017
14
Step 33  E=-436.4163997639  phi=145.745  theta=77.939
C  -1.6255413579  1.4367840828  0.0563845147
C  -0.2942802463  1.2050576589  0.0529641406
C   0.1467118948 -0.0073077142 -0.1494342926
C  -2.4218580185  0.2493686895  0.1054628698
H  -1.9670718115  2.3087100426  0.3675477715
H   0.3974947732  2.0159855666  0.0159330505
H  -3.4033541024  0.5552395163 -0.0698946114
N   1.7572340204  0.0503270370 -0.2211583566
O   2.0959102569 -1.1358839491 -0.2468990233
O   2.4113360377  1.1277319005 -0.0678799049
C  -1.8311797320 -1.1659149427  0.0853130008
H  -2.1935314906 -2.1945011041  0.3899586068
C  -0.4522746254 -1.1433542573 -0.1115036516
H  -0.0841794555 -2.1230038378 -0.2762488260
14
Step 34  E=-436.4116361755  phi=146.062  theta=78.132
C  -1.6215260620  1.4532332558  0.0608211486
C  -0.2899257587  1.2031545901  0.0567242764
C   0.1474426820  0.0008921691 -0.1584136119
C  -2.4104198210  0.2493217058  0.1110026734
H  -1.9784702753  2.3103914031  0.3755347708
H   0.4018807205  1.9872561928  0.0291390091
H  -3.3727861392  0.5296067095 -0.0519622220
N   1.7591519864  0.0440917995 -0.2204816977
O   2.1006208747 -1.1377503502 -0.2589299016
O   2.4160971475  1.1258388078 -0.0723911947
C  -1.8430343812 -1.1570904877  0.0824616974
H  -2.1764155052 -2.2102911794  0.3977655262
C  -0.4526662384 -1.1410845752 -0.1113576966
H  -0.0605122130 -2.0760658483 -0.3054739599
14
Step 35  E=-436.4079798697  phi=146.403  theta=78.349
C  -1.6175324952  1.4676348379  0.0656024775
C  -0.2859955484  1.2023758320  0.0603306398
C   0.1501757403  0.0098012860 -0.1675003632
C  -2.3985274530  0.2491850621  0.1161496688
H  -1.9947977205  2.3212806568  0.3827925603
H   0.4097157248  1.9622725500  0.0434573367
H  -3.3468384811  0.4986214147 -0.0304688825
N   1.7609731080  0.0374105954 -0.2195888701
O   2.1056009336 -1.1387848133 -0.2709592856
O   2.4203877254  1.1229881820 -0.0770979143
C  -1.8549197333 -1.1472851174  0.0798289966
H  -2.1620361158 -2.2177251013  0.4020361512
C  -0.4543366662 -1.1397584349 -0.1111646813
H  -0.0318466325 -2.0337180733 -0.3345089377
14
Step 36  E=-436.4078797780  phi=146.755  theta=78.592
C  -1.6135809786  1.4799506420  0.0707308620
C  -0.2826708154  1.2028016020  0.0638170864
C   0.1548258082  0.0190585501 -0.1766780877
C  -2.3859376488  0.2489281048  0.1209579319
H  -2.0151793649  2.3402134210  0.3890865579
H   0.4225241520  1.9431523637  0.0589049013
H  -3.3298534140  0.4641130830 -0.0060236236
N   1.7627122081  0.0303867390 -0.2185211209
O   2.1108323838 -1.1390219960 -0.2829764147
O   2.4241952401  1.1191599999 -0.0819894080
C  -1.8665633222 -1.1366800996  0.0774428334
H  -2.1508931769 -2.2159830708  0.4025741393
C  -0.4573415284 -1.1389250103 -0.1109145454
H   0.0024788671 -1.9991787153 -0.3638198973
14
Step 37  E=-436.4124495305  phi=147.103  theta=78.861
C  -1.6097855797  1.4903280625  0.0762558831
C  -0.2800436573  1.2045365672  0.0672134405
C   0.1612725340  0.0283085736 -0.1859231549
C  -2.3725344708  0.2485582787  0.1254657178
H  -2.0378636686  2.3641977991  0.3935767862
H   0.4410708508  1.9311778954  0.0755383558
H  -3.3247493670  0.4276009968  0.0210097288
N   1.7643790322  0.0231319240 -0.2173190693
O   2.1163011435 -1.1385117468 -0.2949723428
O   2.4275122993  1.1143433367 -0.0870534080
C  -1.8776878565 -1.1254404369  0.0753155546
H  -2.1435968645 -2.2048001206  0.3993648393
C  -0.4616351353 -1.1382626413 -0.1106295473
H   0.0423578678 -1.9738367449 -0.3935808660
14
Step 38  E=-436.4200094714  phi=147.435  theta=79.157
C  -1.6063153966  1.4990106152  0.0822418318
C  -0.2780887056  1.2077206793  0.0705451143
C   0.1693655442  0.0372295877 -0.1952030256
C  -2.3584470863  0.2481426374  0.1296881596
H  -2.0606400979  2.3894531062  0.3952193796
H   0.4650331698  1.9265134559  0.0934144659
H  -3.3316630365  0.3900769850  0.0506103393
N   1.7659790777  0.0157646787 -0.2160228431
O   2.1219972890 -1.1373186697 -0.3069400614
O   2.4303364353  1.1085364979 -0.0922759422
C  -1.8880183505 -1.1137109785  0.0734425168
H  -2.1408286186 -2.1844674490  0.3925773940
C  -0.4670396403 -1.1376247620 -0.1103892851
H   0.0864967625 -1.9569236335 -0.4233616886
14
Step 39  E=-436.4269528549  phi=147.741  theta=79.482
C  -1.6033468951  1.5062534636  0.0887373549
C  -0.2766647786  1.2125123789  0.0738343285
C   0.1789278305  0.0455546293 -0.2044743586
C  -2.3440740242  0.2477936973  0.1336313209
H  -2.0813223670  2.4123782581  0.3931394847
H   0.4930032032  1.9282866792  0.1125321137
H  -3.3476641205  0.3521725805  0.0829389417
N   1.7675140694  0.0084089652 -0.2146722741
O   2.1279151271 -1.1355215514 -0.3188744676
O   2.4326702492  1.1017470147 -0.0976412311
C  -1.8972889584 -1.1016082159  0.0718002196
H  -2.1433183140 -2.1558655298  0.3825692139
C  -0.4732569347 -1.1369987187 -0.1103295718
H   0.1324944648 -1.9461545938 -0.4521135239
14
Step 40  E=-436.4304197256  phi=148.013  theta=79.831
C  -1.6010270642  1.5122717380  0.0957595234
C  -0.2755465538  1.2190507105  0.0771004515
C   0.1897582796  0.0530855016 -0.2136813762
C  -2.3299858073  0.2476350943  0.1373171956
H  -2.0980953630  2.4301267907  0.3868308286
H   0.5228255790  1.9349757546  0.1327882650
H  -3.3678539346  0.3145286262  0.1180383717
N   1.7689822826  0.0011919158 -0.2133070730
O   2.1340531852 -1.1332124776 -0.3307723956
O   2.4345214604  1.0939921050 -0.1031316883
C  -1.9052488568 -1.0892090744  0.0703445465
H  -2.1518361042 -2.1205212183  0.3698912005
C  -0.4799203415 -1.1364235076 -0.1106158552
H   0.1773882348 -1.9388016863 -0.4784614700
14
Step 41  E=-436.4299221979  phi=148.246  theta=80.203
C  -1.5994522748  1.5172183012  0.1032906974
C  -0.2744697662  1.2274168873  0.0803582203
C   0.2016344055  0.0596995338 -0.2227551346
C  -2.3167791952  0.2477781121  0.1407988643
H  -2.1096927606  2.4408306453  0.3762034381
H   0.5520832593  1.9448744594  0.1539698729
H  -3.3869971926  0.2780271788  0.1556398488
N   1.7703788313 -0.0057591722 -0.2119667943
O   2.1404124402 -1.1304957254 -0.3426326643
O   2.4359032358  1.0852993129 -0.1087278964
C  -1.9116662223 -1.0765411671  0.0690104855
H  -2.1671927721 -2.0806461174  0.3552820490
C  -0.4866544296 -1.1359267466 -0.1114109571
H   0.2182757464 -1.9325075834 -0.5010626256
14
Step 42  E=-436.4269414809  phi=148.436  theta=80.593
C  -1.5986582111  1.5211766242  0.1112818369
C  -0.2731724481  1.2376124090  0.0836150140
C   0.2143160444  0.0653485391 -0.2316142060
C  -2.3049683251  0.2483194710  0.1441588952
H  -2.1154681860  2.4436457479  0.3615548903
H   0.5784964127  1.9564460853  0.1757807088
H  -3.4007148890  0.2437789257  0.1951620512
N   1.7716957622 -0.0123215629 -0.2106907359
O   2.1469958166 -1.1274851126 -0.3544560004
O   2.4368330724  1.0757076235 -0.1144085756
C  -1.9163302097 -1.0635834212  0.0677153589
H  -2.1902323190 -2.0390645984  0.3396268038
C  -0.4931159000 -1.1355011926 -0.1128531164
H   0.2527235603 -1.9256185780 -0.5188329966
14
Step 43  E=-436.4237427498  phi=148.585  theta=80.995
C  -1.5986145631  1.5241578619  0.1196575665
C  -0.2714223513  1.2495566405  0.0868686734
C   0.2275505968  0.0700510909 -0.2401667698
C  -2.2949374933  0.2493503471  0.1474984717
H  -2.1154282688  2.4387568496  0.3435178756
H   0.6001724210  1.9684966025  0.1978761050
H  -3.4059722463  0.2129898247  0.2358206064
N   1.7729228856 -0.0183829806 -0.2095179563
O   2.1538073006 -1.1243003283 -0.3662448859