14
Step 0  E=-436.4857374025  phi=145.046  theta=73.917
C  -1.9019845981  1.1728580155 -0.0477857512
C  -0.4770373764  1.2090019542 -0.0525853999
C   0.1990435238  0.0321437432 -0.0408280574
C  -2.6173317770 -0.0299523599 -0.0148887231
H  -2.4395906844  2.1104740115 -0.0590857904
H   0.0613484581  2.1482551701 -0.0520361292
H  -3.6948228254 -0.0205933426 -0.0041155946
N   1.6711917111  0.0354582163  0.0208438888
O   2.2178566591 -1.0815504237  0.1287505951
O   2.2435387050  1.1378844778 -0.0390932633
C  -1.9265848227 -1.2274616260  0.0051148454
H  -2.4535584196 -2.1748468663  0.0390426412
C  -0.4586746844 -1.2763480092 -0.0365776256
H   0.0225391753 -2.0240771410  0.5967922574
14
Step 1  E=-436.4871692326  phi=145.024  theta=73.917
C  -1.9021473356  1.1731127866 -0.0478243551
C  -0.4780341285  1.2093282049 -0.0526840691
C   0.1987813252  0.0309070064 -0.0408707785
C  -2.6174355199 -0.0293861732 -0.0151656591
H  -2.4328292654  2.1004854133 -0.0587763355
H   0.0607055229  2.1471540656 -0.0523161469
H  -3.6829960550 -0.0212427859 -0.0039959467
N   1.6720957723  0.0348373329  0.0209563985
O   2.2172533746 -1.0803086740  0.1286974209
O   2.2432030258  1.1371720660 -0.0390759421
C  -1.9254588923 -1.2276362220  0.0049389571
H  -2.4529667625 -2.1738186405  0.0401983836
C  -0.4596882081 -1.2749765619 -0.0355056253
H   0.0231475959 -2.0263200145  0.5892710659
14
Step 2  E=-436.4886485290  phi=144.987  theta=73.918
C  -1.9023437849  1.1734106712 -0.0478887799
C  -0.4796785028  1.2098355499 -0.0528480343
C   0.1983387376  0.0288870771 -0.0409405235
C  -2.6174484953 -0.0284660945 -0.0156263514
H  -2.4225307121  2.0854363509 -0.0582722500
H   0.0596968874  2.1454557570 -0.0527792849
H  -3.6651173387 -0.0222707054 -0.0037824970
N   1.6735706774  0.0338173880  0.0211415129
O   2.2162640806 -1.0782644899  0.1286111889
O   2.2426499283  1.1359939601 -0.0390476251
C  -1.9236052078 -1.2278999129  0.0046492566
H  -2.4520057532 -2.1722122142  0.0421076543
C  -0.4613668200 -1.2727029091 -0.0337366604
H   0.0242286475 -2.0301404975  0.5768880904
14
Step 3  E=-436.4893498239  phi=144.939  theta=73.919
C  -1.9024645590  1.1735655327 -0.0479791750
C  -0.4819443080  1.2104726854 -0.0530765531
C   0.1977082515  0.0261443721 -0.0410350745
C  -2.6171374596 -0.0272258184 -0.0162695381
H  -2.4101215199  2.0676852395 -0.0575908056
H   0.0584058903  2.1433463371 -0.0534202683
H  -3.6438738056 -0.0236043035 -0.0034531711
N   1.6755690500  0.0324213353  0.0213955498
O   2.2149131219 -1.0754564245  0.1284955262
O   2.2418888045  1.1343639880 -0.0390091326
C  -1.9210582110 -1.2282148182  0.0042509719
H  -2.4507077285 -2.1701726519  0.0447446013
C  -0.4636929644 -1.2695473215 -0.0312954920
H   0.0258664852 -2.0356378248  0.5598494988
14
Step 4  E=-436.4891199084  phi=144.880  theta=73.919
C  -1.9023679070  1.1733357053 -0.0480959236
C  -0.4847930573  1.2111738711 -0.0533685648
C   0.1968810004  0.0227605771 -0.0411512666
C  -2.6162012475 -0.0257096766 -0.0170934034
H  -2.3974692534  2.0503304241 -0.0567541552
H   0.0569284864  2.1410498062 -0.0542318349
H  -3.6227656029 -0.0251597742 -0.0029765472
N   1.6780254121  0.0306825481  0.0217132073
O   2.2132346960 -1.0719392936  0.1283555853
O   2.2409324909  1.1323014267 -0.0389615996
C  -1.9178660744 -1.2285337203  0.0037515256
H  -2.4491079336 -2.1678735516  0.0480721448
C  -0.4666388244 -1.2655424070 -0.0282134457
H   0.0281465996 -2.0429026890  0.5384025452
14
Step 5  E=-436.4889848329  phi=144.812  theta=73.920
C  -1.9019028243  1.1724653152 -0.0482400420
C  -0.4881721309  1.2118639175 -0.0537226892
C   0.1958481790  0.0188360930 -0.0412849430
C  -2.6143200736 -0.0239709769 -0.0180951732
H  -2.3866094212  2.0367511312 -0.0557846561
H   0.0553558695  2.1387962584 -0.0552048491
H  -3.6055676784 -0.0268581477 -0.0023156403
N   1.6808570678  0.0286458457  0.0220874425
O   2.2112728833 -1.0677848476  0.1281981044
O   2.2397969713  1.1298309310 -0.0389064629
C  -1.9140900565 -1.2288050802  0.0031606080
H  -2.4472358730 -2.1654927241  0.0520409747
C  -0.4701633747 -1.2607370804 -0.0245257104
H   0.0311257998 -2.0519713012  0.5128029459
14
Step 6  E=-436.4907262131  phi=144.738  theta=73.920
C  -1.9009473955  1.1707547514 -0.0484137498
C  -0.4920127487  1.2124634079 -0.0541372373
C   0.1946025778  0.0144871344 -0.0414309227
C  -2.6112358726 -0.0220714700 -0.0192700797
H  -2.3792869044  2.0298154176 -0.0546982434
H   0.0537569133  2.1367881768 -0.0563284209
H  -3.5954375352 -0.0286368435 -0.0014391215
N   1.6839653058  0.0263684975  0.0225093565
O   2.2090815489 -1.0630823709  0.1280314628
O   2.2385010167  1.1269824492 -0.0388454454
C  -1.9098032900 -1.2289783087  0.0024902279
H  -2.4451063952 -2.1631879493  0.0565882716
C  -0.4742091913 -1.2552009261 -0.0202688935
H   0.0347997630 -2.0627730995  0.4832867453
14
Step 7  E=-436.4953959926  phi=144.659  theta=73.919
C  -1.8994515220  1.1681410827 -0.0486208331
C  -0.4962284828  1.2128938294 -0.0546102288
C   0.1931400575  0.0098426082 -0.0415829969
C  -2.6068410348 -0.0200823343 -0.0206096861
H  -2.3764402495  2.0309682547 -0.0535002578
H   0.0521634840  2.1351702072 -0.0575899955
H  -3.5939227843 -0.0304480531 -0.0003406450
N   1.6872369983  0.0239209485  0.0229681153
O   2.2067239912 -1.0579389749  0.1278657071
O   2.2370657711  1.1237911282 -0.0387805397
C  -1.9050893847 -1.2290084330  0.0017547210
H  -2.4427123334 -2.1610767894  0.0616363827
C  -0.4786996925 -1.2490279910 -0.0154796079
H   0.0390750729 -2.0750824434  0.4500552370
14
Step 8  E=-436.5021319816  phi=144.579  theta=73.917
C  -1.8974610302  1.1647453519 -0.0488663288
C  -0.5007152551  1.2130824493 -0.0551394091
C   0.1914607911  0.0050408146 -0.0417339655
C  -2.6012289406 -0.0180856351 -0.0221002546
H  -2.3779046941  2.0396872682 -0.0521889674
H   0.0505614134  2.1340078608 -0.0589753833
H  -3.6003996837 -0.0322435130  0.0009411231
N   1.6905467111  0.0213869469  0.0234509467
O   2.2042721698 -1.0524792852  0.1277125160
O   2.2355142906  1.1202971967 -0.0387139916
C  -1.9000414364 -1.2288593470  0.0009706969
H  -2.4400206989 -2.1592237079  0.0670918322
C  -0.4835376902 -1.2423388447 -0.0101947326
H   0.0437519787 -2.0884884763  0.4132781658
14
Step 9  E=-436.5087147357  phi=144.499  theta=73.914
C  -1.8951066504  1.1608535191 -0.0491555270
C  -0.5053534840  1.2129666555 -0.0557222719
C   0.1895701414  0.0002259711 -0.0418757194
C  -2.5946727847 -0.0161739834 -0.0237223007
H  -2.3825339879  2.0536818846 -0.0507663044
H   0.0488892176  2.1332792670 -0.0604687504
H  -3.6123241591 -0.0339589343  0.0023147149
N   1.6937594351  0.0188626804  0.0239432559
O   2.2018053585 -1.0468441704  0.1275850629
O   2.2338710490  1.1165458257 -0.0386482851
C  -1.8947616656 -1.2285052186  0.0001569003
H  -2.4369738984 -2.1576364513  0.0728451312
C  -0.4886060243 -1.2352797793 -0.0044533108
H   0.0485218943 -2.1023934345  0.3731186686
14
Step 10  E=-436.5132170110  phi=144.420  theta=73.909
C  -1.8925658748  1.1568430622 -0.0494928890
C  -0.5100123528  1.2124972699 -0.0563560962
C   0.1874791449 -0.0044554593 -0.0419993623
C  -2.5875476490 -0.0144467635 -0.0254518742
H  -2.3886484086  2.0696941704 -0.0492484820
H   0.0470454654  2.1328815586 -0.0620526379
H  -3.6261189118 -0.0355124747  0.0036467347
N   1.6967340380  0.0164544523  0.0244289093
O   2.1994081102 -1.0411881329  0.1274977396
O   2.2321614346  1.1125869613 -0.0385861330
C  -1.8893611938 -1.2279302209 -0.0006660349
H  -2.4334963729 -2.1562721982  0.0787717857
C  -0.4937704983 -1.2280184202  0.0017006314
H   0.0529851797 -2.1160423019  0.3297792921
14
Step 11  E=-436.5150193448  phi=144.344  theta=73.903
C  -1.8900212391  1.1530988579 -0.0498814631
C  -0.5145555967  1.2116403555 -0.0570379942
C   0.1852046604 -0.0088586389 -0.0420953497
C  -2.5802425186 -0.0130034472 -0.0272629577
H  -2.3945285091  2.0844023225 -0.0476698863
H   0.0449042012  2.1326505001 -0.0637080994
H  -3.6381582427 -0.0368177427  0.0047849411
N   1.6993274991  0.0142744506  0.0248907371
O   2.1971674421 -1.0356749989  0.1274657187
O   2.2304112614  1.1084751318 -0.0385304731
C  -1.8839590730 -1.2271271478 -0.0014759405
H  -2.4295058347 -2.1550523834  0.0847346245
C  -0.4988847647 -1.2207360575  0.0082149616
H   0.0566917024 -2.1285840819  0.2835498209
14
Step 12  E=-436.5146558724  phi=144.273  theta=73.894
C  -1.8876315717  1.1499516783 -0.0503228969
C  -0.5188480636  1.2103773879 -0.0577649413
C   0.1827692460 -0.0128443567 -0.0421536160
C  -2.5730968150 -0.0119358774 -0.0291299149
H  -2.3987548106  2.0950536891 -0.0460798700
H   0.0423360734  2.1323893145 -0.0654150293
H  -3.6454582298 -0.0378011577  0.0055820558
N   1.7013999087  0.0124343770  0.0253112798
O   2.1951691741 -1.0304717116  0.1275043420
O   2.2286463132  1.1042691999 -0.0384844735
C  -1.8786799104 -1.2260954936 -0.0022495669
H  -2.4249274036 -2.1538834774  0.0905872878
C  -0.5037966049 -1.2136180791  0.0150267398
H   0.0591922897 -2.1391549780  0.2348335604
14
Step 13  E=-436.5131109202  phi=144.206  theta=73.883
C  -1.8855180733  1.1476454798 -0.0508178322
C  -0.5227624334  1.2087041546 -0.0585337613
C   0.1802008022 -0.0162830283 -0.0421637081
C  -2.5663673794 -0.0113211085 -0.0310293330
H  -2.4003680773  2.0997685867 -0.0445359308
H   0.0392315974  2.1319013504 -0.0671527141
H  -3.6460130518 -0.0384151900  0.0059135074
N   1.7028201046  0.0110370501  0.0256737606
O   2.1934935008 -1.0257403221  0.1276283299
O   2.2268919233  1.1000320168 -0.0384515427
C  -1.8736499542 -1.2248394771 -0.0029631379
H  -2.4197086001 -2.1526798785  0.0961786536
C  -0.5083549865 -1.2068438106  0.0220614320
H   0.0600865778 -2.1469622212  0.1841610900
14
Step 14  E=-436.5111961349  phi=144.145  theta=73.870
C  -1.8837593599  1.1463239026 -0.0513664878
C  -0.5261856298  1.2066290549 -0.0593410263
C   0.1775320335 -0.0190586079 -0.0421149436
C  -2.5602156070 -0.0112154681 -0.0329411478
H  -2.3989177154  2.0976334542 -0.0430963782
H   0.0355227783  2.1310212667 -0.0689005813
H  -3.6389035361 -0.0386455736  0.0056885989
N   1.7034716918  0.0101666137  0.0259632007
O   2.1922100907 -1.0216286742  0.1278508610
O   2.2251725709  1.0958299240 -0.0384353423
C  -1.8689919019 -1.2233664167 -0.0035929826
H  -2.4138331334 -2.1513849259  0.1013577702
C  -0.5124173124 -1.2005767221  0.0292343341
H   0.0590656316 -2.1513606600  0.1321938436
14
Step 15  E=-436.5092126892  phi=144.093  theta=73.853
C  -1.8823894831  1.1460251375 -0.0519693494
C  -0.5290245084  1.2041715117 -0.0601828595
C   0.1747997697 -0.0210724032 -0.0419965689
C  -2.5547033876 -0.0116500007 -0.0348491969
H  -2.3944686441  2.0887132067 -0.0418137643
H   0.0311999331  2.1296403689 -0.0706390541
H  -3.6243145379 -0.0385143417  0.0048574245
N   1.7032589952  0.0098785993  0.0261675311
O   2.1913731863 -1.0182607636  0.1281826460
O   2.2235114759  1.0917320214 -0.0384397944
C  -1.8648189070 -1.2216857417 -0.0041161787
H  -2.4073315797 -2.1499866436  0.1059786140
C  -0.5158563497 -1.1949560443  0.0364529249
H   0.0559471290 -2.1519186041  0.0796939377
14
Step 16  E=-436.5068905829  phi=144.050  theta=73.834
C  -1.8813958307  1.1466794259 -0.0526279027
C  -0.5312103707  1.2013610170 -0.0610547183
C   0.1720441573 -0.0222467735 -0.0417978599
C  -2.5497920883 -0.0126274663 -0.0367414288
H  -2.3876037237  2.0740528268 -0.0407291118
H   0.0263216597  2.1277232793 -0.0723503633
H  -3.6035328092 -0.0380804651  0.0034154532
N   1.7021123594  0.0101915481  0.0262785473
O   2.1910173170 -1.0157281195  0.1286311241
O   2.2219301604  1.0878091111 -0.0384690720
C  -1.8612283033 -1.2198088234 -0.0045111076
H  -2.4002874203 -2.1485258653  0.1099041827
C  -0.5185663611 -1.1900903351  0.0436200829
H   0.0506986649 -2.1484599178  0.0274744931
14
Step 17  E=-436.5036436057  phi=144.019  theta=73.811
C  -1.8807171857  1.1481097826 -0.0533452850
C  -0.5327018414  1.1982370437 -0.0619512803
C   0.1693077425 -0.0225286282 -0.0415080919
C  -2.5453455310 -0.0141213029 -0.0386098816
H  -2.3794200328  2.0556653012 -0.0398669184
H   0.0210168870  2.1253142965 -0.0740191673
H  -3.5789175682 -0.0374377726  0.0014053868
N   1.6999922190  0.0110818813  0.0262925682
O   2.1911542456 -1.0140835718  0.1291998876
O   2.2204479287  1.0841322259 -0.0385275531
C  -1.8582955190 -1.2177497696 -0.0047578056
H  -2.3928373403 -2.1470953815  0.1130095965
C  -0.5204682983 -1.1860529448  0.0506384815
H   0.0434509098 -2.1410853161 -0.0236400721
14
Step 18  E=-436.4991661118  phi=144.003  theta=73.783
C  -1.8802457116  1.1500428497 -0.0541266655
C  -0.5334857186  1.1948497457 -0.0628664826
C   0.1666345275 -0.0218925135 -0.0411163440
C  -2.5411443491 -0.0160771272 -0.0404502357
H  -2.3714776251  2.0364292179 -0.0392320313
H   0.0154787735  2.1225327577 -0.0756328909
H  -3.5537573891 -0.0367075897 -0.0010873342
N   1.6968915013  0.0124832572  0.0262106926
O   2.1917715742 -1.0133384530  0.1298883987
O   2.2190812273  1.0807706705 -0.0386197307
C  -1.8560686668 -1.2155272377 -0.0048380242
H  -2.3851654127 -2.1458299045  0.1151838659
C  -0.5215138834 -1.1828794704  0.0574147931
H   0.0345006035 -2.1301814211 -0.0728592825
14
Step 19  E=-436.4941174121  phi=144.006  theta=73.751
C  -1.8798396794  1.1521416901 -0.0549790744
C  -0.5335755666  1.1912610938 -0.0637937068
C   0.1640691329 -0.0203429567 -0.0406112188
C  -2.5369235677 -0.0184171460 -0.0422604785
H  -2.3656249844  2.0197596133 -0.0388113561
H   0.0099511776  2.1195578947 -0.0771817946
H  -3.5318701993 -0.0360235471 -0.0039514016
N   1.6928361636  0.0142908327  0.0260386183
O   2.1928332262 -1.0134636492  0.1306920456
O   2.2178428606  1.0777895704 -0.0387500773
C  -1.8545643053 -1.2131672070 -0.0047350384
H  -2.3774916547 -2.1448879504  0.1163303522
C  -0.5216878297 -1.1805674877  0.0638629694
H   0.0243006489 -2.1164082749 -0.1194844214
14
Step 20  E=-436.4902139118  phi=144.030  theta=73.714
C  -1.8793533611  1.1540700239 -0.0559103663
C  -0.5330081551  1.1875459745 -0.0647260751
C   0.1616561561 -0.0179157910 -0.0399806156
C  -2.5324416380 -0.0210469517 -0.0440383812
H  -2.3636310725  2.0089355530 -0.0385844439
H   0.0047092085  2.1166046971 -0.0786588478
H  -3.5168405194 -0.0355104566 -0.0070825484
N   1.6878839593  0.0163698769  0.0257860741
O   2.1942817834 -1.0143941691  0.1316025435
O   2.2167410811  1.0752470300 -0.0389228771
C  -1.8537648255 -1.2107064322 -0.0044333506
H  -2.3700560125 -2.1444278094  0.1163664014
C  -0.5210075446 -1.1790788278  0.0699073871
H   0.0134376116 -2.1006598777 -0.1629496101
14
Step 21  E=-436.4891538550  phi=144.080  theta=73.670
C  -1.8786815620  1.1555794227 -0.0569272865
C  -0.5318383975  1.1837928956 -0.0656568053
C   0.1594397744 -0.0146782886 -0.0392116481
C  -2.5275695408 -0.0238627778 -0.0457783791
H  -2.3666586304  2.0061667862 -0.0385438073
H   0.0000359944  2.1138937585 -0.0800594797
H  -3.5110126558 -0.0352665695 -0.0104249543
N   1.6821217866  0.0185674318  0.0254659622
O   2.1960422769 -1.0160363288  0.1326086078
O   2.2157785948  1.0731911223 -0.0391420389
C  -1.8536179702 -1.2081959633 -0.0039184395
H  -2.3630995964 -2.1445809904  0.1152226732
C  -0.5195203186 -1.1783445874  0.0754855281
H   0.0025954690 -2.0840029258 -0.2028398567
14
Step 22  E=-436.4910891350  phi=144.156  theta=73.619
C  -1.8778000332  1.1565823177 -0.0580333730
C  -0.5301340317  1.1801041884 -0.0665795601
C   0.1574635084 -0.0107279736 -0.0382907366
C  -2.5223602355 -0.0267566936 -0.0474696404
H  -2.3748014549  2.0118101053 -0.0387167638
H  -0.0038017978  2.1116194808 -0.0813812536
H  -3.5146897598 -0.0353603382 -0.0139990421
N   1.6756620673  0.0207252953  0.0250933304
O   2.1980268539 -1.0182763552  0.1336967927
O   2.2149515871  1.0716570063 -0.0394109103
C  -1.8540390685 -1.2057037126 -0.0031766673
H  -2.3568457708 -2.1454273269  0.1128427111
C  -0.5172981577 -1.1782729275  0.0805488079
H  -0.0074979540 -2.0675900904 -0.2388986431
14
Step 23  E=-436.4943896869  phi=144.260  theta=73.562
C  -1.8767762520  1.1571659760 -0.0592279854
C  -0.5279714147  1.1765956578 -0.0674887429
C   0.1557699508 -0.0061900262 -0.0372038952
C  -2.5170542517 -0.0296187291 -0.0490970038
H  -2.3869821316  2.0242412455 -0.0391739123
H  -0.0065766757  2.1099218812 -0.0826235005
H  -3.5260466223 -0.0358418262 -0.0178947277
N   1.6686385684  0.0226925641  0.0246843213
O   2.2001396907 -1.0209891910  0.1348523699
O   2.2142489250  1.0706645174 -0.0397321129
C  -1.8549162845 -1.2033148961 -0.0021954574
H  -2.3514839241 -2.1469761666  0.1091834579
C  -0.5144306125 -1.1787593324  0.0850612075
H  -0.0161393645 -2.0525469373 -0.2710142553
14
Step 24  E=-436.4970390530  phi=144.393  theta=73.497
C  -1.8757430999  1.1575392603 -0.0605071072
C  -0.5254331178  1.1733953919 -0.0683797009
C   0.1544002801 -0.0012132697 -0.0359372105
C  -2.5120163881 -0.0323374707 -0.0506444210
H  -2.4012898480  2.0404758220 -0.0400169435
H  -0.0081179455  2.1088671666 -0.0837869715
H  -3.5418165428 -0.0367554707 -0.0222335218
N   1.6612019804  0.0243361884  0.0242552314
O   2.2022816899 -1.0240464331  0.1360601462
O   2.2136517083  1.0702165810 -0.0401074219
C  -1.8561184481 -1.2011294999 -0.0009638121
H  -2.3471581362 -2.1491575744  0.1042172184
C  -0.5110165157 -1.1796981522  0.0889962332
H  -0.0227213261 -2.0398498259 -0.2991713934
14
Step 25  E=-436.4980334608  phi=144.553  theta=73.424
C  -1.8748540515  1.1579498753 -0.0618652321
C  -0.5226069130  1.1706411084 -0.0692488061
C   0.1533933626  0.0040352540 -0.0344774453
C  -2.5076434146 -0.0348016743 -0.0520987144
H  -2.4155312307  2.0571126860 -0.0413543377
H  -0.0083214343  2.1084409224 -0.0848736043
H  -3.5582974122 -0.0381422282 -0.0271246717
N   1.6535154197  0.0255485128  0.0238217649
O   2.2043546506 -1.0273227652  0.1373051596
O   2.2131333211  1.0702987181 -0.0405377052
C  -1.8575042552 -1.1992566225  0.0005268541
H  -2.3439618166 -2.1518260068  0.0979349918
C  -0.5071560393 -1.1809934454  0.0923326994
H  -0.0267925705 -2.0302191112 -0.3233826947
14
Step 26  E=-436.4976070288  phi=144.737  theta=73.345
C  -1.8742440607  1.1586156644 -0.0632971410
C  -0.5195850989  1.1684753992 -0.0700934069
C   0.1527842917  0.0093770487 -0.0328126745
C  -2.5042867611 -0.0369043050 -0.0534518192
H  -2.4277067561  2.0711110253 -0.0432792453
H  -0.0071501474  2.1085552045 -0.0858864820
H  -3.5721786559 -0.0400313317 -0.0326367579
N   1.6457499054  0.0262514554  0.0233985074
O   2.2062647147 -1.0307007017  0.1385732241
O   2.2126600805  1.0708797450 -0.0410229279
C  -1.8589313869 -1.1978062586  0.0022816764
H  -2.3419381097 -2.1547762867  0.0903505581
C  -0.5029445013 -1.1825670184  0.0950503546
H  -0.0280963336 -2.0240493770 -0.3436249344
14
Step 27  E=-436.4966199513  phi=144.942  theta=73.258
C  -1.8740067670  1.1596868308 -0.0647989365
C  -0.5164632256  1.1670387162 -0.0709116512
C   0.1526023301  0.0146300402 -0.0309328773
C  -2.5022071620 -0.0385487187 -0.0547011795
H  -2.4362902220  2.0802183756 -0.0458569830
H  -0.0046268706  2.1090680028 -0.0868299980
H  -3.5810039313 -0.0424289413 -0.0387888497
N   1.6380798257  0.0263975517  0.0229985986
O   2.2079250485 -1.0340737634  0.1398513270
O   2.2121924787  1.0719135871 -0.0415622171
C  -1.8602645191 -1.1968796100  0.0043012516
H  -2.3410848888 -2.1577689975  0.0815043982
C  -0.4984687961 -1.1843622141  0.0971269297
H  -0.0265792802 -2.0213923167 -0.3597976177
14
Step 28  E=-436.4958676006  phi=145.163  theta=73.165
C  -1.8741855354  1.1612327380 -0.0663683776
C  -0.5133377801  1.1664606582 -0.0717021886
C   0.1528683401  0.0196171560 -0.0288304395
C  -2.5015551659 -0.0396556880 -0.0558488965
H  -2.4403445244  2.0831265291 -0.0491215538
H  -0.0008215852  2.1098109807 -0.0877101667
H  -3.5833469882 -0.0453096118 -0.0455548033
N   1.6306784141  0.0259684749  0.0226335613
O   2.2092578089 -1.0373483377  0.1411278946
O   2.2116869232  1.0733419647 -0.0421539740
C  -1.8613818243 -1.1965592871  0.0065806708
H  -2.3413625616 -2.1605604069  0.0714664441
C  -0.4938064955 -1.1863431979  0.0985377313
H  -0.0223702726 -2.0219943243 -0.3717134153
14
Step 29  E=-436.4956671107  phi=145.394  theta=73.064
C  -1.8747717071  1.1632406163 -0.0680047876
C  -0.5103028565  1.1668506174 -0.0724637673
C   0.1535919769  0.0241750318 -0.0265005564
C  -2.5023650910 -0.0401697189 -0.0569002776
H  -2.4395545751  2.0794991804 -0.0530777935
H   0.0041628756  2.1106203254 -0.0885349801
H  -3.5788476513 -0.0486131065 -0.0528739207
N   1.6237133154  0.0249718128  0.0223132426
O   2.2101954944 -1.0404445297  0.1423929436
O   2.2110977895  1.0750976180 -0.0427960183
C  -1.8621799700 -1.1969008416  0.0091088153
H  -2.3427028786 -2.1629316487  0.0603368872
C  -0.4890269335 -1.1884907261  0.0992577965
H  -0.0157366930 -2.0253749549 -0.3791205456
14
Step 30  E=-436.4957508400  phi=145.631  theta=72.958
C  -1.8757051564  1.1656173060 -0.0697087257
C  -0.5074461154  1.1682889767 -0.0731947624
C   0.1547690252  0.0281621683 -0.0239415435
C  -2.5045537514 -0.0400633141 -0.0578621444
H  -2.4342359783  2.0699696443 -0.0577067386
H   0.0102039255  2.1113654455 -0.0893147069
H  -3.5682095967 -0.0522474111 -0.0606648491
N   1.6173423344  0.0234368951  0.0220458289
O   2.2106818188 -1.0432963220  0.1436381509
O   2.2103795820  1.0771077113 -0.0434857425
C  -1.8625776958 -1.1979269171  0.0118680081
H  -2.3450171965 -2.1647126398  0.0482447133
C  -0.4841932315 -1.1907960985  0.0992656853
H  -0.0070308273 -2.0309236963 -0.3817471037
14
Step 31  E=-436.4954469772  phi=145.867  theta=72.845
C  -1.8768757454  1.1681916208 -0.0714814449
C  -0.5048444423  1.1708199294 -0.0738926969
C   0.1563793430  0.0314658179 -0.0211550612
C  -2.5079218116 -0.0393383553 -0.0587409974
H  -2.4253355407  2.0561342151 -0.0629737889
H   0.0171691560  2.1119712010 -0.0900620580
H  -3.5531859147 -0.0560985216 -0.0688425720
N   1.6117094644  0.0214103638  0.0218379043
O   2.2106722481 -1.0458513318  0.1448568725
O   2.2094890115  1.0792970944 -0.0442202637
C  -1.8625179644 -1.1996249113  0.0148340598
H  -2.3482030739 -2.1657975946  0.0353441456
C  -0.4793643290 -1.1932549506  0.0985476714
H   0.0033621041 -2.0379939584 -0.3793524311
14
Step 32  E=-436.4941652193  phi=146.098  theta=72.725
C  -1.8781280549  1.1707215470 -0.0733240523
C  -0.5025596784  1.1744466812 -0.0745538283
C   0.1583858577  0.0340069495 -0.0181462602
C  -2.5121623220 -0.0380245316 -0.0595410948
H  -2.4143942717  2.0404932395 -0.0688405024
H   0.0249223711  2.1124307519 -0.0907921727
H  -3.5365013095 -0.0600468479 -0.0773386317
N   1.6069412675  0.0189520133  0.0216945264
O   2.2101343136 -1.0480703923  0.1460441324
O   2.2083868519  1.0815911818 -0.0449965586
C  -1.8619685798 -1.2019484624  0.0179766931
H  -2.3521485259 -2.1661507081  0.0218096487
C  -0.4745964514 -1.1958619845  0.0971013135
H   0.0150669301 -2.0459806528 -0.3717725910
14
Step 33  E=-436.4920823216  phi=146.320  theta=72.600
C  -1.8792752418  1.1729164554 -0.0752363562
C  -0.5006347144  1.1791294130 -0.0751728704
C   0.1607349370  0.0357428326 -0.0149238433
C  -2.5168867792 -0.0361757174 -0.0602627639
H  -2.4034014336  2.0262243698 -0.0752800698
H   0.0333258625  2.1128075996 -0.0915224092
H  -3.5215913880 -0.0639868466 -0.0861210899
N   1.6031436512  0.0161312301  0.0216193087
O   2.2090478035 -1.0499271095  0.1471966003
O   2.2070394801  1.0839183168 -0.0458115798
C  -1.8609211630 -1.2048223983  0.0212602897
H  -2.3567336643 -2.1658022500  0.0078304503
C  -0.4699438175 -1.1986071298  0.0949378364
H   0.0277496508 -2.0543756858 -0.3589524112
14
Step 34  E=-436.4905336053  phi=146.528  theta=72.469
C  -1.8801286897  1.1744860753 -0.0772157527
C  -0.4990902526  1.1847860777 -0.0757429004
C   0.1633582497  0.0366670787 -0.0115000402
C  -2.5216800835 -0.0338661298 -0.0609018571
H  -2.3944572175  2.0166519092 -0.0822922346
H   0.0422395900  2.1132268882 -0.0922719305
H  -3.5120243689 -0.0678401159 -0.0952032483
N   1.6003990671  0.0130241840  0.0216145046
O   2.2074048980 -1.0514074868  0.1483125680
O   2.2054200455  1.0862115938 -0.0466623522
C  -1.8593885780 -1.2081501818  0.0246448675
H  -2.3618298808 -2.1648367646 -0.0063944416
C  -0.4654586163 -1.2014732348  0.0920831484
H   0.0411367191 -2.0628008967 -0.3409615118
14
Step 35  E=-436.4913836719  phi=146.721  theta=72.331
C  -1.8805433012  1.1752168993 -0.0792570498
C  -0.4979227156  1.1912960135 -0.0762554630
C   0.1661759795  0.0368072905 -0.0078905024
C  -2.5261841161 -0.0311882174 -0.0614516645
H  -2.3892412448  2.0143972362 -0.0899068799
H   0.0515182317  2.1138573053 -0.0930610617
H  -3.5106005793 -0.0715475939 -0.1046247305
N   1.5987641570  0.0097117991  0.0216810936
O   2.2052102823 -1.0525096682  0.1493919365
O   2.2035092887  1.0884101721 -0.0475460506
C  -1.8574013056 -1.2118224672  0.0280871610
H  -2.3672972849 -2.1633760766 -0.0206600657
C  -0.4611903553 -1.2044352484  0.0885775489
H   0.0550234788 -2.0710198384 -0.3179945570
14
Step 36  E=-436.4954771596  phi=146.895  theta=72.189
C  -1.8804625809  1.1750503316 -0.0813541738
C  -0.4971040725  1.1985063598 -0.0767008458
C   0.1691010355  0.0362207465 -0.0041141373
C  -2.5301835107 -0.0282525908 -0.0619077090
H  -2.3884711001  2.0204933336 -0.0981649934
H   0.0610065881  2.1148861768 -0.0939104090
H  -3.5184249729 -0.0750355556 -0.1143986527
N   1.5982678802  0.0062784347  0.0218188733
O   2.2024812355 -1.0532438133  0.1504362221
O   2.2012960546  1.0904601549 -0.0484600613
C  -1.8550036658 -1.2157252849  0.0315416580
H  -2.3729816718 -2.1615601899 -0.0347580662
C  -0.4571846452 -1.2074608669  0.0844742959
H   0.0692720223 -2.0789295650 -0.2903571407
14
Step 37  E=-436.5017108182  phi=147.051  theta=72.042
C  -1.8799367849  1.1741170804 -0.0835034301
C  -0.4965842864  1.2062409870 -0.0770684854
C   0.1720437666  0.0349887412 -0.0001929037
C  -2.5336480027 -0.0251874284 -0.0622733837
H  -2.3916685961  2.0339763942 -0.1070806679
H   0.0705337552  2.1164915329 -0.0948397940
H  -3.5344714079 -0.0781752889 -0.1244479730
N   1.5989101885  0.0028111405  0.0220265574
O   2.1992476393 -1.0536320749  0.1514485650
O   2.1987775212  1.0923151304 -0.0494020356
C  -1.8522508212 -1.2197466587  0.0349614689
H  -2.3787126217 -2.1595291415 -0.0484783416
C  -0.4534814524 -1.2105126778  0.0798372732
H   0.0837970183 -2.0865330477 -0.2584402159
14
Step 38  E=-436.5078812897  phi=147.187  theta=71.891
C  -1.8791007862  1.1727022220 -0.0857063363
C  -0.4962963051  1.2143109906 -0.0773474445
C   0.1749165982  0.0332103285  0.0038484212
C  -2.5367050155 -0.0221337196 -0.0625628058
H  -2.3973981646  2.0522450408 -0.1166075673
H   0.0799077524  2.1188153727 -0.0958671214
H  -3.5559371105 -0.0807708753 -0.1345736040
N   1.6006613390 -0.0006006715  0.0223018770
O   2.1955518030 -1.0537086479  0.1524337290
O   2.1959592687  1.0939364349 -0.0503699397
C  -1.8492069509 -1.2237811182  0.0382990019
H  -2.3843040704 -2.1574085192 -0.0616103112
C  -0.4501128491 -1.2135517646  0.0747380707
H   0.0985382593 -2.0938933406 -0.2226891079
14
Step 39  E=-436.5122907257  phi=147.303  theta=71.737
C  -1.8781271081  1.1711636415 -0.0879702100
C  -0.4961627417  1.2225252101 -0.0775268917
C   0.1776381336  0.0309961118  0.0079824947
C  -2.5395633461 -0.0192355153 -0.0627991362
H  -2.4038024747  2.0719310803 -0.1266317049
H   0.0889123674  2.1219428889 -0.0970073455
H  -3.5791431789 -0.0825882381 -0.1444754514
N   1.6034619430 -0.0038654991  0.0226416980
O   2.1914482896 -1.0535196401  0.1533981389
O   2.1928551325  1.0952932986 -0.0513621114
C  -1.8459442327 -1.2277322519  0.0415065200
H  -2.3895580584 -2.1553009637 -0.0739442795
C  -0.4471001161 -1.2165424008  0.0692530219
H   0.1134230918 -2.1010734908 -0.1835754077
14
Step 40  E=-436.5144977298  phi=147.398  theta=71.580
C  -1.8771813814  1.1698498382 -0.0903065856
C  -0.4961029551  1.2306991799 -0.0775965007
C   0.1801363728  0.0284626248  0.0121796894
C  -2.5424331492 -0.0166281153 -0.0630099645
H  -2.4091166673  2.0897661842 -0.1369901569
H   0.0973088414  2.1258911392 -0.0982715822
H  -3.6004604790 -0.0834053712 -0.1538079449
N   1.6072238322 -0.0068902143  0.0230421447
O   2.1870033116 -1.0531227432  0.1543498516
O   2.1894868552  1.0963629840 -0.0523773123
C  -1.8425418736 -1.2315137513  0.0445367011
H  -2.3942716760 -2.1532849140 -0.0852732841
C  -0.4444507693 -1.2194569840  0.0634609271
H   0.1283268601 -2.1080720361 -0.1415780011
14
Step 41  E=-436.5149900258  phi=147.474  theta=71.423
C  -1.8763951319  1.1690452876 -0.0927287692
C  -0.4960393411  1.2386614834 -0.0775467202
C   0.1823509172  0.0257276695  0.0164084043
C  -2.5454715880 -0.0144278532 -0.0632224945
H  -2.4119837819  2.1031366314 -0.1475003415
H   0.1048443728  2.1306082055 -0.0996664001
H  -3.6169286053 -0.0830562012 -0.1622379948
N   1.6118318951 -0.0095809866  0.0234987523
O   2.1822936530 -1.0525864913  0.1552984815
O   2.1858837878  1.0971308852 -0.0534147780
C  -1.8390846381 -1.2350494394  0.0473432772
H  -2.3982467683 -2.1514201717 -0.0953957717
C  -0.4421560364 -1.2222800504  0.0574421814
H   0.1430414395 -2.1147681841 -0.0971748371
14
Step 42  E=-436.5144954420  phi=147.529  theta=71.264
C  -1.8758548371  1.1689444951 -0.0952495503
C  -0.4959024894  1.2462573879 -0.0773689437
C   0.1842342211  0.0229066450  0.0206354596
C  -2.5487568405 -0.0127252418 -0.0634600346
H  -2.4115805970  2.1103239025 -0.1579874046
H   0.1112654781  2.1359822907 -0.1011933740
H  -3.6265450421 -0.0814559742 -0.1694877303
N   1.6171469556 -0.0118450599  0.0240066691
O   2.1774050281 -1.0519887110  0.1562550538
O   2.1820825271  1.0975906517 -0.0544742763
C  -1.8356607701 -1.2382726406  0.0498817793
H  -2.4013015283 -2.1497580881 -0.1041193489
C  -0.4401899347 -1.2250102488  0.0512792156
H   0.1572526686 -2.1208942605 -0.0508500325
14
Step 43  E=-436.5134649037  phi=147.564  theta=71.106
C  -1.8755998675  1.1696435000 -0.0978792503
C  -0.4956351982  1.2533503476 -0.0770556792
C   0.1857518331  0.0201097543  0.0248266402
C  -2.5522798593 -0.0115813766 -0.0637398464
H  -2.4076385838  2.1105645186 -0.1683065786
H   0.1163342777  2.1418583891 -0.1028489642
H  -3.6283533864 -0.0786109378 -0.1753617972
N   1.6230097839 -0.0135935346  0.0245609415
O   2.1724295927 -1.0514142204  0.1572317082