14
Step 0  E=-436.4843485643  phi=66.269  theta=64.314
C  -1.9018133931  1.1727400984 -0.0477892463
C  -0.4769391504  1.2090339039 -0.0526129767
C   0.1990280097  0.0320559054 -0.0408486029
C  -2.6171979489 -0.0300830762 -0.0148485436
H  -2.4418711070  2.1136063445 -0.0591934873
H   0.0608547368  2.1472829598 -0.0521051083
H  -3.6982052676 -0.0201386010 -0.0040574998
N   1.6711059874  0.0357699904  0.0208215910
O   2.2180095123 -1.0816696998  0.1287712671
O   2.2435013582  1.1377385335 -0.0391141748
C  -1.9265814111 -1.2276515587  0.0051369975
H  -2.4522135675 -2.1721600937  0.0390153370
C  -0.4587093298 -1.2763348627 -0.0364985182
H   0.0224638985 -2.0237705879  0.5961822662
14
Step 1  E=-436.4859925353  phi=66.204  theta=64.307
C  -1.9014864207  1.1726782208 -0.0478384066
C  -0.4776471530  1.2094450729 -0.0527945114
C   0.1987190452  0.0305570414 -0.0409526793
C  -2.6169383354 -0.0299064931 -0.0150046501
H  -2.4416746764  2.1125674886 -0.0592032201
H   0.0588044935  2.1433961517 -0.0525913813
H  -3.6960572083 -0.0194475366 -0.0037695717
N   1.6717545362  0.0360755457  0.0208676185
O   2.2178624149 -1.0807823428  0.1287798476
O   2.2430545447  1.1365917943 -0.0391597203
C  -1.9254308327 -1.2283652233  0.0050273110
H  -2.4477765476 -2.1634334372  0.0400972993
C  -0.4598282176 -1.2749208844 -0.0351934456
H   0.0228745135 -2.0251397078  0.5868742482
14
Step 2  E=-436.4882729793  phi=66.099  theta=64.295
C  -1.9009462073  1.1725720982 -0.0479206718
C  -0.4788298494  1.2100584744 -0.0530969959
C   0.1981978702  0.0281048691 -0.0411237362
C  -2.6164731601 -0.0296273440 -0.0152629639
H  -2.4413973365  2.1109411440 -0.0592181104
H   0.0556915502  2.1374806299 -0.0533963167
H  -3.6927437200 -0.0183178582 -0.0032959956
N   1.6728091372  0.0365698612  0.0209433176
O   2.2176254536 -1.0793172061  0.1287956521
O   2.2423192986  1.1347015349 -0.0392366272
C  -1.9234882095 -1.2294256976  0.0048469827
H  -2.4410342545 -2.1501935960  0.0419122305
C  -0.4616870351 -1.2725664081 -0.0330497919
H   0.0237169066 -2.0276534455  0.5716520830
14
Step 3  E=-436.4907387470  phi=65.956  theta=64.277
C  -1.9002004016  1.1724182615 -0.0480365520
C  -0.4804895650  1.2107733001 -0.0535201687
C   0.1974563380  0.0247668048 -0.0413581069
C  -2.6157579993 -0.0292668717 -0.0156206620
H  -2.4411071671  2.1088717515 -0.0592364195
H   0.0519413682  2.1303197320 -0.0545127287
H  -3.6886294609 -0.0167826745 -0.0026460432
N   1.6742308067  0.0372305458  0.0210471513
O   2.2173107690 -1.0772949044  0.1288209178
O   2.2413098062  1.1320992978 -0.0393464042
C  -1.9207180576 -1.2306472120  0.0045994585
H  -2.4329375857 -2.1343276287  0.0444816661
C  -0.4642744126 -1.2692781946 -0.0301114760
H   0.0252021267 -2.0316211881  0.5509119729
14
Step 4  E=-436.4931664251  phi=65.781  theta=64.254
C  -1.8992607676  1.1722137449 -0.0481867886
C  -0.4826255077  1.2114629092 -0.0540633875
C   0.1964852982  0.0206344012 -0.0416505593
C  -2.6147389374 -0.0288519199 -0.0160737306
H  -2.4408861683  2.1065365578 -0.0592562053
H   0.0480827500  2.1228815238 -0.0559325021
H  -3.6841561039 -0.0148882186 -0.0018324337
N   1.6759659472  0.0380263402  0.0211769349
O   2.2169350356 -1.0747441494  0.1288587424
O   2.2400459490  1.1288293726 -0.0394911858
C  -1.9170785048 -1.2317911394  0.0042892812
H  -2.4247194815 -2.1182649081  0.0478401229
C  -0.4675693032 -1.2650730783 -0.0264334993
H   0.0275704843 -2.0373941548  0.5251291233
14
Step 5  E=-436.4957421073  phi=65.579  theta=64.225
C  -1.8981441583  1.1719576368 -0.0483723795
C  -0.4852287426  1.2119896850 -0.0547254220
C   0.1952765086  0.0158208193 -0.0419942453
C  -2.6133599569 -0.0284123007 -0.0166168864
H  -2.4408185622  2.1041239581 -0.0592757645
H   0.0446733641  2.1161806930 -0.0576479359
H  -3.6797790465 -0.0126936070 -0.0008713071
N   1.6779473434  0.0389173048  0.0213298086
O   2.2165191376 -1.0717015937  0.1289130510
O   2.2385532670  1.1249488356 -0.0396737479
C  -1.9125365800 -1.2325988576  0.0039225384
H  -2.4177139940 -2.1046265270  0.0520298408
C  -0.4715352972 -1.2599856065 -0.0220760729
H   0.0310331979 -2.0452766572  0.4947873062
14
Step 6  E=-436.4989367311  phi=65.357  theta=64.191
C  -1.8968735856  1.1716526192 -0.0485945995
C  -0.4882754676  1.2122229729 -0.0555042916
C   0.1938246585  0.0104579376 -0.0423806904
C  -2.6115709897 -0.0279779222 -0.0172434707
H  -2.4409781666  2.1018103999 -0.0592941476
H   0.0422049416  2.1111078370 -0.0596526000
H  -3.6758972482 -0.0102703615  0.0002175261
N   1.6800954664  0.0398552022  0.0215022123
O   2.2160877457 -1.0682116210  0.1289885562
O   2.2368628292  1.1205274675 -0.0398975211
C  -1.9070935560 -1.2328409984  0.0035084429
H  -2.4130620740 -2.0956852753  0.0570809485
C  -0.4761133610 -1.2540771960 -0.0170987722
H   0.0357022623 -2.0554152238  0.4603105106
14
Step 7  E=-436.5030430397  phi=65.122  theta=64.149
C  -1.8954791606  1.1713062245 -0.0488549974
C  -0.4917199674  1.2120570409 -0.0563972126
C   0.1921292658  0.0046932337 -0.0427998368
C  -2.6093354449 -0.0275762038 -0.0179453267
H  -2.4414166627  2.0997391428 -0.0593117238
H   0.0410051732  2.1082581310 -0.0619412365
H  -3.6727877146 -0.0077015871  0.0014099820
N   1.6823201143  0.0407841889  0.0216898718
O   2.2156687818 -1.0643260807  0.1290907123
O   2.2350109444  1.1156474364 -0.0401665959
C  -1.9008146130 -1.2323713146  0.0030621445
H  -2.4113709207 -2.0927683374  0.0629754548
C  -0.4812144104 -1.2474449483 -0.0115566837
H   0.0415225448 -2.0676879650  0.4220190485
14
Step 8  E=-436.5077370628  phi=64.883  theta=64.101
C  -1.8939986035  1.1709315601 -0.0491553480
C  -0.4954895854  1.2114247457 -0.0574006968
C   0.1901962395 -0.0013135269 -0.0432401360
C  -2.6066359633 -0.0272303342 -0.0187127043
H  -2.4421546849  2.0980041545 -0.0593307688
H   0.0411634040  2.1078066337 -0.0645085583
H  -3.6705578585 -0.0050806733  0.0026768436
N   1.6845224209  0.0416419544  0.0218877983
O   2.2152927655 -1.0601039600  0.1292256621
O   2.2330386355  1.1104026005 -0.0404857134
C  -1.8938493393 -1.2311618690  0.0026077284
H  -2.4124802995 -2.0958701544  0.0696072909
C  -0.4867141997 -1.2402273835 -0.0055002781
H   0.0482236758 -2.0816291953  0.3801307628
14
Step 9  E=-436.5121248150  phi=64.647  theta=64.045
C  -1.8924770153  1.1705473129 -0.0494975466
C  -0.4994840379  1.2103031352 -0.0585107926
C   0.1880389580 -0.0073938467 -0.0436886811
C  -2.6034773884 -0.0269586500 -0.0195342552
H  -2.4431773282  2.0966417185 -0.0593560200
H   0.0425059639  2.1094723851 -0.0673473139
H  -3.6691267471 -0.0025093609  0.0039829639
N   1.6865972662  0.0423614458  0.0220903012
O   2.2149920752 -1.0556109639  0.1294001650
O   2.2309907984  1.1048972592 -0.0408602331
C  -1.8864303660 -1.2293005293  0.0021795037
H  -2.4154762299 -2.1036961709  0.0767613884
C  -0.4924529661 -1.2326042253  0.0010207890
H   0.0553117368 -2.0964189895  0.3348176297
14
Step 10  E=-436.5152547253  phi=64.423  theta=63.983
C  -1.8909656966  1.1701769487 -0.0498834544
C  -0.5035800680  1.2087098141 -0.0597233979
C   0.1856787728 -0.0133744214 -0.0441313682
C  -2.5998865377 -0.0267749447 -0.0203971829
H  -2.4444349739  2.0956311257 -0.0593951300
H   0.0446311668  2.1125843504 -0.0704463806
H  -3.6682400182 -0.0000950143  0.0052869861
N   1.6884361084  0.0428732951  0.0222910018
O   2.2148001767 -1.0509189519  0.1296215074
O   2.2289149850  1.0992441929 -0.0412960659
C  -1.8788494890 -1.2269535688  0.0018204023
H  -2.4189502039 -2.1141065825  0.0841269095
C  -0.4982407625 -1.2247888093  0.0079513034
H   0.0621173451 -2.1109498001  0.2862986267
14
Step 11  E=-436.5166189728  phi=64.219  theta=63.912
C  -1.8895199824  1.1698471828 -0.0503147357
C  -0.5076405405  1.2066922039 -0.0610345259
C   0.1831448430 -0.0190815299 -0.0445530824
C  -2.5959091352 -0.0266891704 -0.0212875496
H  -2.4458493131  2.0949041475 -0.0594589719
H   0.0469917533  2.1162247017 -0.0737896586
H  -3.6675150074  0.0020530198  0.0065419589
N   1.6899302165  0.0431090617  0.0224828363
O   2.2147507792 -1.0461052246  0.1298974112
O   2.2268597940  1.0935618675 -0.0417995628
C  -1.8714229115 -1.2243152422  0.0015781332
H  -2.4213614794 -2.1247082715  0.0913380127
C  -0.5038679164 -1.2170145536  0.0152237525
H   0.0678864844 -2.1239602542  0.2349211070
14
Step 12  E=-436.5162901240  phi=64.044  theta=63.833
C  -1.8881962647  1.1695859285 -0.0507927533
C  -0.5115257344  1.2043138273 -0.0624404219
C   0.1804732277 -0.0243458676 -0.0449379487
C  -2.5916048523 -0.0267079733 -0.0221906810
H  -2.4473235439  2.0943614377 -0.0595617561
H   0.0489980807  2.1194027242 -0.0773561916
H  -3.6665058514  0.0038279033  0.0076969797
N   1.6909742505  0.0430053067  0.0226580561
O   2.2148769214 -1.0412516551  0.1302359326
O   2.2248728997  1.0879707721 -0.0423773538
C  -1.8644585211 -1.2215658766  0.0015007578
H  -2.4213491741 -2.1333474139  0.0980222796
C  -0.5091188795 -1.2095185451  0.0227543525
H   0.0718791732 -2.1341964995  0.1812136434
14
Step 13  E=-436.5147506757  phi=63.903  theta=63.746
C  -1.8870484903  1.1694199315 -0.0513185941
C  -0.5151044742  1.2016415622 -0.0639374637
C   0.1777053460 -0.0290076984 -0.0452697135
C  -2.5870415432 -0.0268347656 -0.0230915377
H  -2.4487550837  2.0938928809 -0.0597209240
H   0.0501156003  2.1212154231 -0.0811214922
H  -3.6647752961  0.0051302456  0.0086996633
N   1.6914701061  0.0425082867  0.0228082638
O   2.2152100476 -1.0364435752  0.1306453385
O   2.2229987979  1.0825890001 -0.0430361431
C  -1.8582309940 -1.2188468183  0.0016329502
H  -2.4179275236 -2.1384073335  0.1038409331
C  -0.5137869020 -1.2025249777  0.0304433447
H   0.0734639567 -2.1405630897  0.1259084548
14
Step 14  E=-436.5126130281  phi=63.802  theta=63.650
C  -1.8861244722  1.1693723245 -0.0518932448
C  -0.5182636065  1.1987361015 -0.0655218471
C   0.1748860952 -0.0329222052 -0.0455322212
C  -2.5822897035 -0.0270694224 -0.0239749120
H  -2.4500488374  2.0933984957 -0.0599568497
H   0.0499407120  2.1209698394 -0.0850597515
H  -3.6619611521  0.0058729127  0.0094989767
N   1.6913308677  0.0415788456  0.0229244977
O   2.2157790667 -1.0317683557  0.1311339724
O   2.2212764035  1.0775273236 -0.0437824755
C  -1.8529640687 -1.2162492410  0.0020133246
H  -2.4105779878 -2.1389443763  0.1085160227
C  -0.5176877119 -1.1962309240  0.0381779554
H   0.0721963391 -2.1422456589  0.0699057486
14
Step 15  E=-436.5103531786  phi=63.747  theta=63.544
C  -1.8854623989  1.1694604427 -0.0525178339
C  -0.5209152865  1.1956460479 -0.0671891902
C   0.1720619377 -0.0359648564 -0.0457098072
C  -2.5774179903 -0.0274079425 -0.0248254820
H  -2.4511291653  2.0928068136 -0.0602923970
H   0.0482507785  2.1182616032 -0.0891465282
H  -3.6578290885  0.0059851597  0.0100479411
N   1.6904846456  0.0401968990  0.0229973459
O   2.2166093807 -1.0273136639  0.1317101027
O   2.2197366923  1.0728841602 -0.0446224846
C  -1.8488172212 -1.2138101825  0.0026726696
H  -2.3992803204 -2.1347349326  0.1118475795
C  -0.5206716427 -1.1907957048  0.0458373510
H   0.0678629837 -2.1387925629  0.0142054618
14
Step 16  E=-436.5081556520  phi=63.740  theta=63.428
C  -1.8850879312  1.1696942132 -0.0531938069
C  -0.5230020156  1.1924051182 -0.0689342227
C   0.1692792064 -0.0380364712 -0.0457873921
C  -2.5724902380 -0.0278422793 -0.0256278630
H  -2.4519489801  2.0920882650 -0.0607523956
H   0.0450306610  2.1130150249 -0.0933615578
H  -3.6523072808  0.0054156904  0.0103057803
N   1.6888780945  0.0383647804  0.0230170510
O   2.2177218856 -1.0231653484  0.1323817286
O   2.2184006116  1.0687409434 -0.0455616295
C  -1.8458750512 -1.2115111129  0.0036328891
H  -2.3845148741 -2.1262875809  0.1137249622
C  -0.5226337587 -1.1863332726  0.0532992124
H   0.0605037252 -2.1301619533 -0.0401541962
14
Step 17  E=-436.5059186492  phi=63.783  theta=63.303
C  -1.8850122280  1.1700753187 -0.0539229639
C  -0.5244994180  1.1890318606 -0.0707506090
C   0.1665827502 -0.0390676546 -0.0457502160
C  -2.5675640810 -0.0283602444 -0.0263667143
H  -2.4524949015  2.0912620487 -0.0613631294
H   0.0404790171  2.1054914716 -0.0976914114
H  -3.6455012733  0.0041345667  0.0102392113
N   1.6864794499  0.0361088641  0.0229735899
O   2.2191319214 -1.0194049347  0.1331563348
O   2.2172774875  1.0651584091 -0.0466044456
C  -1.8441402268 -1.2092782230  0.0049066275
H  -2.3672439879 -2.1148340075  0.1141331337
C  -0.5235210942 -1.1829070122  0.0604458066
H   0.0504221217 -2.1167452230 -0.0921739790
14
Step 18  E=-436.5034116581  phi=63.876  theta=63.166
C  -1.8852311433  1.1705972071 -0.0547073765
C  -0.5254166130  1.1855317099 -0.0726308973
C   0.1640149193 -0.0390223830 -0.0455833828
C  -2.5626911444 -0.0289452255 -0.0270269055
H  -2.4527878283  2.0903957302 -0.0621518360
H   0.0349949515  2.0962680782 -0.1021317414
H  -3.6376886509  0.0021340610  0.0098227433
N   1.6832809019  0.0334791342  0.0228568012
O   2.2208481739 -1.0161068146  0.1340405948
O   2.2163641308  1.0621742221 -0.0477543465
C  -1.8435331275 -1.2069875303  0.0064977788
H  -2.3488537481 -2.1022675589  0.1131496911
C  -0.5233359502 -1.1805271982  0.0671693537
H   0.0381755916 -2.0993637194 -0.1409817005
14
Step 19  E=-436.5005486536  phi=64.017  theta=63.019
C  -1.8857257219  1.1712459406 -0.0555492381
C  -0.5257938647  1.1819017133 -0.0745666173
C   0.1616148847 -0.0379005351 -0.0452714582
C  -2.5579187136 -0.0295754527 -0.0275937340
H  -2.4528788194  2.0895976441 -0.0631461597
H   0.0291424412  2.0861828547 -0.1066886809
H  -3.6292936798 -0.0005715014  0.0090379921
N   1.6793001830  0.0305465986  0.0226566570
O   2.2228715306 -1.0133353039  0.1350400406
O   2.2156447616  1.0598022053 -0.0490135158
C  -1.8439022218 -1.2044810995  0.0084033986
H  -2.3310180364 -2.0909594526  0.1109240352
C  -0.5221342855 -1.1791514174  0.0733778444
H   0.0245491822 -2.0792366849 -0.1858961337
14
Step 20  E=-436.4976229780  phi=64.203  theta=62.861
C  -1.8864639694  1.1720018125 -0.0564506995
C  -0.5256971945  1.1781384871 -0.0765485561
C   0.1594183277 -0.0357391991 -0.0447982617
C  -2.5532927262 -0.0302226959 -0.0280531583
H  -2.4528406230  2.0890028189 -0.0643735812
H   0.0235886456  2.0762391226 -0.1113786489
H  -3.6208426413 -0.0039468558  0.0078720996
N   1.6745812717  0.0273987355  0.0223637108
O   2.2251940227 -1.0111417382  0.1361587182
O   2.2150917699  1.0580332255 -0.0503829087
C  -1.8450478195 -1.2016008943  0.0106175663
H  -2.3154514662 -2.0833762806  0.1076308088
C  -0.5200187779 -1.1786887766  0.0790000293
H   0.0105138461 -2.0579107061 -0.2264746205
14
Step 21  E=-436.4952402425  phi=64.429  theta=62.690
C  -1.8874036814  1.1728416075 -0.0574137237
C  -0.5252100267  1.1742495388 -0.0785672700
C   0.1574575528 -0.0326126576 -0.0441469327
C  -2.5488617926 -0.0308505856 -0.0283920290
H  -2.4527558020  2.0887540187 -0.0658608753
H   0.0190155855  2.0674669244 -0.1162256835
H  -3.6129026143 -0.0079376330  0.0063155449
N   1.6691941341  0.0241335117  0.0219696957
O   2.2277980323 -1.0095618783  0.1373988691
O   2.2146672292  1.0568375470 -0.0518623601
C  -1.8467566669 -1.1982400408  0.0131367085
H  -2.3035692739 -2.0814968440  0.1034035384
C  -0.5171271500 -1.1790095485  0.0839876898
H  -0.0028489737 -2.0371331376 -0.2625417387
14
Step 22  E=-436.4939067493  phi=64.690  theta=62.507
C  -1.8884959582  1.1737412837 -0.0584399817
C  -0.5244227876  1.1702667875 -0.0806138630
C   0.1557619577 -0.0286309635 -0.0433003209
C  -2.5446816235 -0.0314131812 -0.0285983374
H  -2.4527029784  2.0889802531 -0.0676336139
H   0.0160137701  2.0607536859 -0.1212558236
H  -3.6060097816 -0.0124725157  0.0043599045
N   1.6632334236  0.0208527987  0.0214682011
O   2.2306557128 -1.0086140580  0.1387606446
O   2.2143249805  1.0561682667 -0.0534507748
C  -1.8488368328 -1.1943967448  0.0159639613
H  -2.2961622548 -2.0861932835  0.0982783221
C  -0.5136171967 -1.1799611533  0.0883142550
H  -0.0144616453 -2.0186659100 -0.2941622630
14
Step 23  E=-436.4936435082  phi=64.977  theta=62.312
C  -1.8896889300  1.1746787440 -0.0595308024
C  -0.5234224157  1.1662592657 -0.0826809455
C   0.1543586951 -0.0239370285 -0.0422416773
C  -2.5408188326 -0.0318547952 -0.0286614814
H  -2.4527432553  2.0897757889 -0.0697157254
H   0.0149787911  2.0566773533 -0.1264891675
H  -3.6005973836 -0.0174652187  0.0019962696
N   1.6568161568  0.0176559550  0.0208553331
O   2.2337289036 -1.0082982565  0.1402419169
O   2.2140130508  1.0559653844 -0.0551463690
C  -1.8511382783 -1.1902041484  0.0191093564
H  -2.2932455485 -2.0968803246  0.0921870541
C  -0.5096503529 -1.1813889270  0.0919689030
H  -0.0233836986 -2.0040566485 -0.3215467014
14
Step 24  E=-436.4940146233  phi=65.285  theta=62.103
C  -1.8909312110  1.1756363235 -0.0606871762
C  -0.5222843112  1.1623406996 -0.0847635481
C   0.1532732307 -0.0187021290 -0.0409555389
C  -2.5373528136 -0.0321120379 -0.0285725324
H  -2.4529091029  2.0911830838 -0.0721291167
H   0.0160398304  2.0553897653 -0.1319316630
H  -3.5969364173 -0.0228158147 -0.0007850586
N   1.6500784358  0.0146342703  0.0201302501
O   2.2369697240 -1.0085962330  0.1418382209
O   2.2136761819  1.0561600620 -0.0569469274
C  -1.8535517052 -1.1859168080  0.0225849381
H  -2.2941631265 -2.1116502555  0.0850116669
C  -0.5053766436 -1.1831575664  0.0949466402
H  -0.0289377644 -1.9944109583 -0.3449135005
14
Step 25  E=-436.4944854658  phi=65.603  theta=61.881
C  -1.8921747130  1.1766026489 -0.0619097929
C  -0.5210686743  1.1586682595 -0.0868597126
C   0.1525294786 -0.0131197813 -0.0394286467
C  -2.5343745356 -0.0321184076 -0.0283244741
H  -2.4531977461  2.0931828120 -0.0748933597
H   0.0190437298  2.0565910995 -0.1375694733
H  -3.5951017078 -0.0284112309 -0.0039933043
N   1.6431713148  0.0118667874  0.0192954823
O   2.2403217998 -1.0094727969  0.1435428289
O   2.2132582854  1.0566786939 -0.0588500428
C  -1.8559922208 -1.1818601348  0.0263976317
H  -2.2978719015 -2.1278148619  0.0766659335
C  -0.5009241836 -1.1851675508  0.0972377287
H  -0.0307963578 -1.9902325047 -0.3643501988
14
Step 26  E=-436.4947394213  phi=65.923  theta=61.647
C  -1.8933766297  1.1775736082 -0.0631990946
C  -0.5198214570  1.1554315018 -0.0889705528
C   0.1521492259 -0.0073980264 -0.0376507373
C  -2.5319817272 -0.0318108397 -0.0279123519
H  -2.4535702690  2.0956930228 -0.0780254864
H   0.0235990747  2.0596053193 -0.1433680830
H  -3.5949709705 -0.0341252561 -0.0076345526
N   1.6362559760  0.0094176852  0.0183569913
O   2.2437220747 -1.0108780733  0.1453469596
O   2.2127046935  1.0574465348 -0.0608533168
C  -1.8583813995 -1.1783683001  0.0305437616
H  -2.3032470314 -2.1425587350  0.0671576321
C  -0.4963950969 -1.1873616926  0.0988211150
H  -0.0289999404 -1.9913853861 -0.3797252658
14
Step 27  E=-436.4947668837  phi=66.237  theta=61.400
C  -1.8945005956  1.1785523197 -0.0645553308
C  -0.5185783184  1.1528338815 -0.0910997461
C   0.1521507170 -0.0017503693 -0.0356151120
C  -2.5302708749 -0.0311370294 -0.0273332530
H  -2.4539566933  2.0985779299 -0.0815399505
H   0.0291629837  2.0635294964 -0.1492764413
H  -3.5962565611 -0.0398188183 -0.0117082805
N   1.6294984621  0.0073351004  0.0173239753
O   2.2471030982 -1.0127504723  0.1472401034
O   2.2119641147  1.0583907642 -0.0629545109
C  -1.8606368678 -1.1757330734  0.0350070002
H  -2.3092990435 -2.1534512527  0.0566089482
C  -0.4918675710 -1.1897207645  0.0996647215
H  -0.0239018170 -1.9971866710 -0.3906856066
14
Step 28  E=-436.4947835283  phi=66.536  theta=61.143
C  -1.8955171318  1.1795481481 -0.0659786065
C  -0.5173691862  1.1510711966 -0.0932525760
C   0.1525464511  0.0036141358 -0.0333189796
C  -2.5293273329 -0.0300622527 -0.0265860667
H  -2.4542660936  2.1016649037 -0.0854487962
H   0.0351422071  2.0674093233 -0.1552346076
H  -3.5985616419 -0.0453414392 -0.0162039392
N   1.6230642400  0.0056510906  0.0162084717
O   2.2503955806 -1.0150200217  0.1492104255
O   2.2109902476  1.0594429508 -0.0651516500
C  -1.8626703629 -1.1741712464  0.0397591456
H  -2.3152854783 -2.1587408445  0.0452420321
C  -0.4874018466 -1.1922514865  0.0997319514
H  -0.0160652609 -2.0065874059 -0.3967332533
14
Step 29  E=-436.4950744770  phi=66.813  theta=60.877
C  -1.8964035519  1.1805749783 -0.0674689144
C  -0.5162215522  1.1503111270 -0.0954347249
C   0.1533404661  0.0085009440 -0.0307636446
C  -2.5292153288 -0.0285746265 -0.0256710441
H  -2.4544000009  2.1047668297 -0.0897620265
H   0.0409840381  2.0703978704 -0.1611826732
H  -3.6014479722 -0.0505345634 -0.0210984059
N   1.6171128847  0.0043823612  0.0150248353
O   2.2535309907 -1.0176117276  0.1512452005
O   2.2097430460  1.0605409500 -0.0674430868
C  -1.8643905879 -1.1738074473  0.0447623630
H  -2.3207522950 -2.1574818560  0.0333466767
C  -0.4830472706 -1.1949721097  0.0989911664
H  -0.0061493616 -2.0183790698 -0.3973417478
14
Step 30  E=-436.4958323027  phi=67.060  theta=60.604
C  -1.8971435142  1.1816490782 -0.0690261462
C  -0.5151618171  1.1506765490 -0.0976509997
C   0.1545255339  0.0127394107 -0.0279546308
C  -2.5299695758 -0.0266880430 -0.0245892454
H  -2.4542669036  2.1077062235 -0.0944881196
H   0.0462444454  2.0718740077 -0.1670691772
H  -3.6045023788 -0.0552369857 -0.0263548516
N   1.6117931361  0.0035313998  0.0137891785
O   2.2564440033 -1.0204486877  0.1533312433
O   2.2081896730  1.0616303026 -0.0698275401
C  -1.8657067926 -1.1746664752  0.0499719731
H  -2.3255456786 -2.1495733200  0.0212424443
C  -0.4788482632 -1.1978998347  0.0974246165
H   0.0051886762 -2.0313744827 -0.3920686657
14
Step 31  E=-436.4970457259  phi=67.272  theta=60.329
C  -1.8977263904  1.1827869162 -0.0706500816
C  -0.5142150641  1.1522337750 -0.0999041249
C   0.1560808107  0.0161906926 -0.0249018018
C  -2.5315897102 -0.0244423083 -0.0233420061
H  -2.4537957726  2.1103376578 -0.0996346132
H   0.0506317848  2.0715158601 -0.1728581315
H  -3.6073922311 -0.0592920731 -0.0319231757
N   1.6072385183  0.0030877396  0.0125188439
O   2.2590746315 -1.0234547704  0.1554553043
O   2.2063051911  1.0626652227 -0.0723041189
C  -1.8665306783 -1.1766714613  0.0553395020
H  -2.3298183938 -2.1357603926  0.0092401144
C  -0.4748483193 -1.2010419836  0.0950347264
H   0.0173633357 -2.0445397553 -0.3806378972
14
Step 32  E=-436.4985015665  phi=67.445  theta=60.053
C  -1.8981465884  1.1840032229 -0.0723403618
C  -0.5134041164  1.1549860121 -0.1021936978
C   0.1579704684  0.0187534598 -0.0216194966
C  -2.5340381079 -0.0219003737 -0.0219305379
H  -2.4529468317  2.1125654945 -0.1052086567
H   0.0540296801  2.0693342238 -0.1785343798
H  -3.6099041793 -0.0625560568 -0.0377418061
N   1.6035636211  0.0030291663  0.0112319564
O   2.2613699424 -1.0265567604  0.1576044106
O   2.2040730409  1.0636092597 -0.0748723420
C  -1.8667764579 -1.1796478416  0.0608159782
H  -2.3340329659 -2.1176020067 -0.0023963146
C  -0.4710920976 -1.2043909335  0.0918472173
H   0.0299036284 -2.0570764256 -0.3629846258
14
Step 33  E=-436.4999300325  phi=67.577  theta=59.779
C  -1.8984029400  1.1853095007 -0.0740964669
C  -0.5127485816  1.1588720954 -0.1045154006
C   0.1601437378  0.0203669388 -0.0181266616
C  -2.5372410306 -0.0191429402 -0.0203557430
H  -2.4517183669  2.1143548943 -0.1112174247
H   0.0565025807  2.0656715091 -0.1841071320
H  -3.6119639108 -0.0649064000 -0.0437404066
N   1.6008610920  0.0033227784  0.0099470818
O   2.2632853236 -1.0296859469  0.1597661463
O   2.2014853558  1.0644357110 -0.0775321590
C  -1.8663612564 -1.1833367417  0.0663551753
H  -2.3389409552 -2.0973613057 -0.0134834537
C  -0.4676259326 -1.2079219673  0.0879114722
H   0.0424751076 -2.0684629350 -0.3392671476
14
Step 34  E=-436.5012383168  phi=67.667  theta=59.512
C  -1.8984982477  1.1867130859 -0.0759177176
C  -0.5122640462  1.1637706291 -0.1068605818
C   0.1625365509  0.0210111503 -0.0144469473
C  -2.5410926505 -0.0162611661 -0.0186182609
H  -2.4501488888  2.1157349358 -0.1176682809
H   0.0582841005  2.0611671688 -0.1896111674
H  -3.6136366032 -0.0662491133 -0.0498428797
N   1.5991993383  0.0039258853  0.0086829973
O   2.2647853309 -1.0327792021  0.1619288732
O   2.1985431499  1.0651278437 -0.0802839756
C  -1.8652101347 -1.1874235421  0.0719157369
H  -2.3454962756 -2.0777442656 -0.0239363256
C  -0.4644969407 -1.2115932277  0.0832987477
H   0.0548863831 -2.0784638602 -0.3098520095
14
Step 35  E=-436.5026464698  phi=67.717  theta=59.253
C  -1.8984390627  1.1882167830 -0.0778033230
C  -0.5119609717  1.1695097046 -0.1092163393
C   0.1650746589  0.0207045829 -0.0106087358
C  -2.5454613158 -0.0133486341 -0.0167187285
H  -2.4483144132  2.1167934940 -0.1245685716
H   0.0597444235  2.0566857426 -0.1951046654
H  -3.6151087908 -0.0665239095 -0.0559699815
N   1.5986209099  0.0047868033  0.0074585608
O   2.2658441651 -1.0357796493  0.1640818993
O   2.1952564028  1.0656789586 -0.0831286863
C  -1.8632703759 -1.1915851899  0.0774603766
H  -2.3546570135 -2.0614322262 -0.0337493529
C  -0.4617506195 -1.2153474951  0.0780986924
H   0.0670811920 -2.0871097845 -0.2752774375
14
Step 36  E=-436.5045241347  phi=67.730  theta=59.006
C  -1.8982357179  1.1898190235 -0.0797524792
C  -0.5118425156  1.1758820246 -0.1115662201
C   0.1676778340  0.0194998501 -0.0066450739
C  -2.5501973936 -0.0104940201 -0.0146582189
H  -2.4463211164  2.1176643284 -0.1319249325
H   0.0613319049  2.0532034260 -0.2006623716
H  -3.6166531748 -0.0657063487 -0.0620409088
N   1.5991415387  0.0058456467  0.0062926566
O   2.2664458512 -1.0386370256  0.1662156160
O   2.1916440406  1.0660923125 -0.0860677130
C  -1.8605356979 -1.1955500677  0.0829508339
H  -2.3670747074 -2.0504654865 -0.0429246556
C  -0.4594267580 -1.2191161688  0.0724145006
H   0.0791117177 -2.0946456268 -0.2362000186
14
Step 37  E=-436.5069984674  phi=67.709  theta=58.771
C  -1.8979025594  1.1915144673 -0.0817644976
C  -0.5119007429  1.1826643733 -0.1138915725
C   0.1702645738  0.0174780440 -0.0025934705
C  -2.5551420490 -0.0077757965 -0.0124388277
H  -2.4442941121  2.1185076820 -0.1397420186
H   0.0634882312  2.0516570426 -0.2063633392
H  -3.6185793894 -0.0638066967 -0.0679734494
N   1.6007498254  0.0070352163  0.0052041830
O   2.2665842143 -1.0413078339  0.1683216182
O   2.1877337937  1.0663808866 -0.0891030499
C  -1.8570722031 -1.1991499195  0.0883400031
H  -2.3827687688 -2.0457033546 -0.0513642737
C  -0.4575537192 -1.2228261129  0.0663571782
H   0.0910881344 -2.1014443581 -0.1933332261
14
Step 38  E=-436.5097317869  phi=67.660  theta=58.551
C  -1.8974582336  1.1932949404 -0.0838389230
C  -0.5121116280  1.1896389558 -0.1161734261
C   0.1727566499  0.0147425187  0.0015044952
C  -2.5601363230 -0.0052596200 -0.0100643670
H  -2.4423636323  2.1194866055 -0.1480206468
H   0.0665471770  2.0527757437 -0.2122741966
H  -3.6211760125 -0.0608660087 -0.0736826732
N   1.6034075838  0.0082821229  0.0042120361
O   2.2662626505 -1.0437554043  0.1703927946
O   2.1835618933  1.0665669582 -0.0922373054
C  -1.8530309180 -1.2023387539  0.0935660612
H  -2.4009599388 -2.0466459941 -0.0587848079
C  -0.4561416625 -1.2264094005  0.0600399215
H   0.1031087295 -2.1078884931 -0.1473900886
14
Step 39  E=-436.5121152193  phi=67.588  theta=58.346
C  -1.8969258007  1.1951505844 -0.0859756049
C  -0.5124305346  1.1966126965 -0.1183945583
C   0.1750829294  0.0114126917  0.0056038088
C  -2.5650298084 -0.0029980504 -0.0075410934
H  -2.4406503560  2.1207420920 -0.1567554693
H   0.0706403662  2.0569336728 -0.2184313587
H  -3.6246520066 -0.0569506528 -0.0790785792
N   1.6070508908  0.0095082667  0.0033350409
O   2.2654937765 -1.0459499292  0.1724234092
O   2.1791725479  1.0666814147 -0.0954737325
C  -1.8486365331 -1.2051701868  0.0985533414
H  -2.4201773371 -2.0517189445 -0.0647130063
C  -0.4551759078 -1.2298145256  0.0535740840
H   0.1151856309 -2.1142354590 -0.0990440304
14
Step 40  E=-436.5136383581  phi=67.501  theta=58.159
C  -1.8963324110  1.1970710419 -0.0881747112
C  -0.5127906314  1.2034302185 -0.1205412457
C   0.1771821528  0.0076182092  0.0096569274
C  -2.5696880981 -0.0010315957 -0.0048783571
H  -2.4392519534  2.1223707295 -0.1659324576
H   0.0756404400  2.0640677394 -0.2248274187
H  -3.6290880120 -0.0521467518 -0.0840634662
N   1.6115918678  0.0106327641  0.0025917727
O   2.2642990751 -1.0478684636  0.1744092001
O   2.1746171265  1.0667627444 -0.0988162302
C  -1.8441565698 -1.2077496380  0.1032200601
H  -2.4385829080 -2.0588352160 -0.0685653312
C  -0.4546127473 -1.2330161392  0.0470678249
H   0.1271789555 -2.1205046722 -0.0489225983
14
Step 41  E=-436.5140907781  phi=67.406  theta=57.989
C  -1.8957083282  1.1990464550 -0.0904366983
C  -0.5131061222  1.2099777940 -0.1226042441
C   0.1790045822  0.0034936536  0.0136149311
C  -2.5739981199  0.0006098844 -0.0020890446
H  -2.4382328817  2.1244084915 -0.1755265834
H   0.0811639707  2.0736883667 -0.2314065012
H  -3.6344077944 -0.0465557946 -0.0885300096
N   1.6169211894  0.0115744420  0.0020002109
O   2.2627083771 -1.0494950520  0.1763474450
O   2.1699529743  1.0668556220 -0.1022692893
C  -1.8398650222 -1.2101869190  0.1074886323
H  -2.4543454677 -2.0659448479 -0.0697616278
C  -0.4543802808 -1.2360196180  0.0406273703
H   0.1387584336 -2.1264305042  0.0023619372
14
Step 42  E=-436.5135414122  phi=67.307  theta=57.837
C  -1.8950852438  1.2010680271 -0.0927622568
C  -0.5132803367  1.2161786112 -0.1245788098
C   0.1805127044 -0.0008261941  0.0174288133
C  -2.5778706769  0.0019059393  0.0008102768
H  -2.4376190566  2.1268233956 -0.1855000949
H   0.0866350254  2.0849780467 -0.2380703174
H  -3.6403766504 -0.0402920879 -0.0923610109
N   1.6229112642  0.0122548584  0.0015772362
O   2.2607593206 -1.0508209271  0.1782370168
O   2.1652418509  1.0670090431 -0.1058378690
C  -1.8360120835 -1.2125643637  0.1112942047
H  -2.4659301518 -2.0714013732 -0.0678210077
C  -0.4543846188 -1.2388579166  0.0343597750
H   0.1494214716 -2.1314956689  0.0541680729
14
Step 43  E=-436.5122179775  phi=67.213  theta=57.704
C  -1.8944940062  1.2031279478 -0.0951522529
C  -0.5132167962  1.2219824593 -0.1264639073
C   0.1816812180 -0.0052105129  0.0210507361
C  -2.5812400602  0.0028445519  0.0037995596
H  -2.4373981799  2.1295181819 -0.1958017334
H   0.0913879900  2.0969427649 -0.2446927376
H  -3.6466274537 -0.0334819131 -0.0954315085
N   1.6294199674  0.0126018630  0.0013380191
O   2.2584966842 -1.0518447668  0.1800784099
O   2.1605480555  1.0672739550 -0.1095271952