14
Step 0  E=-436.4923402546  phi=140.291  theta=119.815
C  -1.9019486204  1.1728410326 -0.0477231146
C  -0.4770294986  1.2089950847 -0.0525845022
C   0.1990429352  0.0321390206 -0.0408439758
C  -2.6172958817 -0.0299707863 -0.0148258869
H  -2.4399643355  2.1110292492 -0.0590900671
H   0.0613471809  2.1482839644 -0.0520852542
H  -3.6956184075 -0.0205499267 -0.0041176246
N   1.6711709926  0.0354717030  0.0208416926
O   2.2178717403 -1.0815636374  0.1287045511
O   2.2435470198  1.1378877294 -0.0390769205
C  -1.9265795640 -1.2274576235  0.0051160435
H  -2.4536267933 -2.1749297006  0.0389726902
C  -0.4586475147 -1.2763699926 -0.0366113349
H   0.0223659299 -2.0238773014  0.5964915030
14
Step 1  E=-436.4937897135  phi=140.277  theta=119.821
C  -1.9020078891  1.1730516128 -0.0475736038
C  -0.4780023758  1.2093012382 -0.0526805072
C   0.1987790174  0.0308878949 -0.0409344696
C  -2.6173016752 -0.0294592617 -0.0149140006
H  -2.4342735106  2.1026260993 -0.0587965567
H   0.0606993133  2.1472658122 -0.0525125607
H  -3.6860643950 -0.0210737430 -0.0040083089
N   1.6720134302  0.0348910076  0.0209474116
O   2.2173134319 -1.0803613098  0.1285133546
O   2.2432361462  1.1371850504 -0.0390105393
C  -1.9254381433 -1.2276215523  0.0049435998
H  -2.4532337329 -2.1741382291  0.0399187275
C  -0.4595817117 -1.2750614025 -0.0356424966
H   0.0224789516 -2.0255555878  0.5880961282
14
Step 2  E=-436.4955559528  phi=140.255  theta=119.831
C  -1.9020470725  1.1732990791 -0.0473238823
C  -0.4796062242  1.2097767272 -0.0528401130
C   0.1983337188  0.0288432790 -0.0410838819
C  -2.6171846622 -0.0286283408 -0.0150589613
H  -2.4255872295  2.0899434494 -0.0583288497
H   0.0596791278  2.1456947272 -0.0532209277
H  -3.6715839606 -0.0219070055 -0.0038259775
N   1.6733874010  0.0339371059  0.0211205391
O   2.2163982046 -1.0783820744  0.1281974424
O   2.2427239323  1.1360230944 -0.0389003511
C  -1.9235595325 -1.2278717171  0.0046591522
H  -2.4525826271 -2.1728888805  0.0414789043
C  -0.4611352512 -1.2728824347 -0.0340519533
H   0.0228136148 -2.0285489591  0.5743460820
14
Step 3  E=-436.4970345160  phi=140.226  theta=119.844
C  -1.9019800829  1.1734336104 -0.0469733555
C  -0.4818140108  1.2103725124 -0.0530626477
C   0.1976997553  0.0260646368 -0.0412900252
C  -2.6167629461 -0.0275091616 -0.0152580366
H  -2.4150657615  2.0749072871 -0.0577171318
H   0.0583660761  2.1437416258 -0.0542048052
H  -3.6542611722 -0.0229963881 -0.0035685343
N   1.6752481743  0.0326314450  0.0213564086
O   2.2151490569 -1.0756632678  0.1277609506
O   2.2420190936  1.1344155822 -0.0387470217
C  -1.9209793402 -1.2281758810  0.0042672363
H  -2.4516764644 -2.1712760569  0.0436277577
C  -0.4633007562 -1.2698391481 -0.0318731193
H   0.0235659134 -2.0331174316  0.5555690176
14
Step 4  E=-436.4980359394  phi=140.191  theta=119.862
C  -1.9016968759  1.1732635017 -0.0465216783
C  -0.4845866207  1.2110257367 -0.0533470443
C   0.1968685692  0.0226325187 -0.0415497122
C  -2.6158051298 -0.0261430680 -0.0155075304
H  -2.4042120378  2.0600161133 -0.0569987909
H   0.0568526507  2.1416119421 -0.0554566965
H  -3.6367714672 -0.0242796692 -0.0032304758
N   1.6775339552  0.0310050962  0.0216483798
O   2.2135982890 -1.0722578407  0.1272096904
O   2.2411335425  1.1323816410 -0.0385514743
C  -1.9177471911 -1.2284933198  0.0037743838
H  -2.4505139112 -2.1694130017  0.0463284197
C  -0.4660634339 -1.2659463120 -0.0291472240
H   0.0249619839 -2.0395537233  0.5321547825
14
Step 5  E=-436.4990954003  phi=140.150  theta=119.882
C  -1.9010813504  1.1725871794 -0.0459693468
C  -0.4878715941  1.2116646132 -0.0536917397
C   0.1958317484  0.0186461796 -0.0418586733
C  -2.6140667341 -0.0245801452 -0.0158026937
H  -2.3946599147  2.0479822085 -0.0562121302
H   0.0552284428  2.1395162759 -0.0569673016
H  -3.6219856133 -0.0256962304 -0.0028031857
N   1.6801667483  0.0290996132  0.0219877607
O   2.2117875204 -1.0682348827  0.1265511554
O   2.2400821109  1.1299457302 -0.0383148805
C  -1.9139261874 -1.2287786058  0.0031892680
H  -2.4490849525 -2.1674164904  0.0495315525
C  -0.4693966360 -1.2612338405 -0.0259184507
H   0.0272094623 -2.0481093535  0.5044959378
14
Step 6  E=-436.5012483937  phi=140.106  theta=119.907
C  -1.9000393837  1.1712442443 -0.0453184793
C  -0.4916017575  1.2122136404 -0.0540945847
C   0.1945825697  0.0142208757 -0.0422115012
C  -2.6113451121 -0.0228783332 -0.0161373536
H  -2.3878398150  2.0411540406 -0.0553877807
H   0.0535637372  2.1376393706 -0.0587255469
H  -3.6123628387 -0.0271951386 -0.0022787340
N   1.6830535313  0.0269678571  0.0223637521
O   2.2097675805 -1.0636800598  0.1257945105
O   2.2388822106  1.1271375503 -0.0380386493
C  -1.9095920018 -1.2289856022  0.0025228349
H  -2.4473669071 -2.1653918367  0.0531742720
C  -0.4732566578 -1.2557544522 -0.0222291691
H   0.0304406408 -2.0589047221  0.4729306369
14
Step 7  E=-436.5051953471  phi=140.059  theta=119.934
C  -1.8985300162  1.1691731872 -0.0445735637
C  -0.4956942622  1.2125987000 -0.0545527912
C   0.1931174998  0.0094849551 -0.0426016415
C  -2.6075395555 -0.0211033366 -0.0165032906
H  -2.3846038056  2.0408574259 -0.0545400582
H   0.0518955163  2.1361123701 -0.0607184457
H  -3.6092823460 -0.0287358582 -0.0016571221
N   1.6860878091  0.0246745590  0.0227634470
O   2.2075981570 -1.0586957572  0.1249505408
O   2.2375534407  1.1239919370 -0.0377244154
C  -1.9048317551 -1.2290710944  0.0017883777
H  -2.4453219430 -2.1634207922  0.0571793279
C  -0.4775778015 -1.2495910501 -0.0181167636
H   0.0346587660 -2.0718401295  0.4377049301
14
Step 8  E=-436.5105297627  phi=140.012  theta=119.964
C  -1.8965852917  1.1664490049 -0.0437418051
C  -0.5000507207  1.2127517061 -0.0550629432
C   0.1914374892  0.0045767806 -0.0430214393
C  -2.6026903341 -0.0193287973 -0.0168896691
H  -2.3849825567  2.0469587024 -0.0536621903
H   0.0502185873  2.1349932293 -0.0629307980
H  -3.6126120744 -0.0302805783 -0.0009537364
N   1.6891516351  0.0222963388  0.0231719218
O   2.2053470568 -1.0534006624  0.1240315336
O   2.2361171524  1.1205487326 -0.0373740263
C  -1.8997429215 -1.2289975270  0.0010015071
H  -2.4428971365 -2.1615542994  0.0614548394
C  -0.4822691982 -1.2428616897 -0.0136134248
H   0.0397007698 -2.0865333770  0.3989683970
14
Step 9  E=-436.5158683899  phi=139.963  theta=119.996
C  -1.8943068651  1.1632776655 -0.0428327947
C  -0.5045589979  1.2126144923 -0.0556210832
C   0.1895489357 -0.0003585431 -0.0434622396
C  -2.5969749924 -0.0176355052 -0.0172829505
H  -2.3882167595  2.0579115705 -0.0527283930
H   0.0484839219  2.1342590606 -0.0653448108
H  -3.6207615770 -0.0317842496 -0.0002021987
N   1.6921181952  0.0199208418  0.0235724543
O   2.2030889325 -1.0479284844  0.1230510619
O   2.2345959840  1.1168526300 -0.0369895307
C  -1.8944323468 -1.2287345540  0.0001799835
H  -2.4400277942 -2.1598112137  0.0658948720
C  -0.4872147872 -1.2357199646 -0.0087491467
H   0.0452274797 -2.1023055926  0.3568112072
14
Step 10  E=-436.5197714084  phi=139.915  theta=120.030
C  -1.8918414883  1.1599497572 -0.0418575599
C  -0.5090967713  1.2121415904 -0.0562228651
C   0.1874642505 -0.0051726808 -0.0439145381
C  -2.5906644139 -0.0161085915 -0.0176674713
H  -2.3930393973  2.0712584423 -0.0517020272
H   0.0466050451  2.1338118729 -0.0679397731
H  -3.6311870624 -0.0331909088  0.0005495088
N   1.6948550367  0.0176446016  0.0239469042
O   2.2009033708 -1.0424254873  0.1220236433
O   2.2330133890  1.1129529823 -0.0365731679
C  -1.8890151115 -1.2282594674 -0.0006566026
H  -2.4366440786 -2.1581830327  0.0703810355
C  -0.4922769432 -1.2283495684 -0.0035568064
H   0.0507501392 -2.1182237983  0.3113375039
14
Step 11  E=-436.5215462266  phi=139.868  theta=120.066
C  -1.8893493374  1.1567786172 -0.0408273629
C  -0.5135365218  1.2113016331 -0.0568637359
C   0.1852020508 -0.0097178513 -0.0443681531
C  -2.5840627485 -0.0148327127 -0.0180264458
H  -2.3980434959  2.0842960790 -0.0505459339
H   0.0444718336  2.1334965276 -0.0706919279
H  -3.6410692907 -0.0344392442  0.0012471985
N   1.6972279990  0.0155692641  0.0242762826
O   2.1988722779 -1.0370465353  0.1209642627
O   2.2313931736  1.1089035731 -0.0361273617
C  -1.8836127606 -1.2275568328 -0.0014872663
H  -2.4326802873 -2.1566437349  0.0747850162
C  -0.4973031253 -1.2209537765  0.0019220993
H   0.0556917935 -2.1331968795  0.2627420291
14
Step 12  E=-436.5213781156  phi=139.822  theta=120.103
C  -1.8869782392  1.1540481175 -0.0397526271
C  -0.5177513830  1.2100773745 -0.0575390936
C   0.1827870091 -0.0138508341 -0.0448123917
C  -2.5774556165 -0.0138861920 -0.0183429779
H  -2.4019795336  2.0946213686 -0.0492311669
H   0.0419695242  2.1331272982 -0.0735746671
H  -3.6478848988 -0.0354733690  0.0018386856
N   1.6991058236  0.0137959794  0.0245415164
O   2.1970765219 -1.0319494876  0.1198877628
O   2.2297590639  1.1047623192 -0.0356547179
C  -1.8783505223 -1.2266176841 -0.0022901320
H  -2.4280855669 -2.1551628462  0.0789717876
C  -0.5021343040 -1.2137422575  0.0076327977
H   0.0594628030 -2.1461007961  0.2113578676
14
Step 13  E=-436.5199596962  phi=139.778  theta=120.140
C  -1.8848482524  1.1519798952 -0.0386421962
C  -0.5216212524  1.2084646496 -0.0582443820
C   0.1802493709 -0.0174370911 -0.0452362169
C  -2.5710767915 -0.0133352371 -0.0186008296
H  -2.4039284628  2.1004526116 -0.0477424890
H   0.0389997963  2.1325182297 -0.0765591362
H  -3.6497586502 -0.0362532133  0.0022795255
N   1.7003653298  0.0124180725  0.0247243806
O   2.1955918982 -1.0272880226  0.1188081101
O   2.2281343052  1.1005908655 -0.0351580233
C  -1.8733534149 -1.2254385862 -0.0030429751
H  -2.4228346293 -2.1537192855  0.0828032904
C  -0.5066138375 -1.2069175174  0.0135056953
H   0.0615300832 -2.1558989940  0.1576836755
14
Step 14  E=-436.5180315846  phi=139.736  theta=120.177
C  -1.8830443692  1.1507169576 -0.0375029617
C  -0.5250386421  1.2064708129 -0.0589750845
C   0.1776241474 -0.0203549519 -0.0456284058
C  -2.5650911019 -0.0132289470 -0.0187848833
H  -2.4033759290  2.1007685385 -0.0460808431
H   0.0355006001  2.1315123595 -0.0796152506
H  -3.6456284112 -0.0367616547  0.0025361523
N   1.7008969418  0.0115125265  0.0248085131
O   2.1944846643 -1.0232033064  0.1177375908
O   2.2265412770  1.0964540253 -0.0346402440
C  -1.8687413781 -1.2240208449 -0.0037237559
H  -2.4169369577 -2.1523133850  0.0861421988
C  -0.5105958282 -1.2006626681  0.0194577927
H   0.0614744987 -2.1617460698  0.1023858608
14
Step 15  E=-436.5160539306  phi=139.697  theta=120.214
C  -1.8816133256  1.1503167046 -0.0363398142
C  -0.5279138297  1.2041132452 -0.0597266036
C   0.1749500079 -0.0224998371 -0.0459776590
C  -2.5595871752 -0.0135954262 -0.0188813465
H  -2.4002348775  2.0953502912 -0.0442636532
H   0.0314619231  2.1300057552 -0.0827129995
H  -3.6353024499 -0.0370082910  0.0025874776
N   1.7006101782  0.0111313363  0.0247803765
O   2.1938070488 -1.0198153387  0.1166860413
O   2.2250011065  1.0924189994 -0.0341045198
C  -1.8646237649 -1.2223700752 -0.0043110858
H  -2.4104431782 -2.1509748651  0.0888552752
C  -0.5139523022 -1.1951317068  0.0253954193
H   0.0590326859 -2.1630664245  0.0462565565
14
Step 16  E=-436.5140610278  phi=139.662  theta=120.250
C  -1.8805616869  1.1507483322 -0.0351558321
C  -0.5301789485  1.2014184003 -0.0604940913
C   0.1722679544 -0.0237884221 -0.0462726148
C  -2.5545753121 -0.0144391602 -0.0188778280
H  -2.3948496367  2.0847875783 -0.0423235821
H   0.0269354956  2.1279635695 -0.0858237974
H  -3.6194686723 -0.0370306578  0.0024259454
N   1.6994385921  0.0112941359  0.0246300402
O   2.1935932735 -1.0172151072  0.1156602196
O   2.2235332563  1.0885543006 -0.0335541440
C  -1.8610936204 -1.2204963001 -0.0047845740
H  -2.4034475539 -2.1497651633  0.0908161201
C  -0.5165789174 -1.1904424879  0.0312183037
H   0.0541222781 -2.1595973416 -0.0098426201
14
Step 17  E=-436.5117404252  phi=139.633  theta=120.285
C  -1.8798545653  1.1518935100 -0.0339526250
C  -0.5317907450  1.1984216528 -0.0612723116
C   0.1696199712 -0.0241625481 -0.0465017240
C  -2.5499895061 -0.0157398276 -0.0187633740
H  -2.3879893035  2.0704638936 -0.0403059480
H   0.0220373657  2.1254265228 -0.0889216276
H  -3.5996702239 -0.0368930635  0.0020582189
N   1.6973436698  0.0119835017  0.0243516808
O   2.1938566145 -1.0154587148  0.1146633856
O   2.2221550433  1.0849283166 -0.0329925183
C  -1.8582221898 -1.2184147245 -0.0051250034
H  -2.3960859796 -2.1487733689  0.0919071835
C  -0.5183995429 -1.1866720562  0.0368247459
H   0.0468539321 -2.1514093889 -0.0650273376
14
Step 18  E=-436.5087507196  phi=139.611  theta=120.318
C  -1.8794167640  1.1535534847 -0.0327307802
C  -0.5327317685  1.1951679632 -0.0620555687
C   0.1670478602 -0.0235925764 -0.0466529869
C  -2.5456965450 -0.0174528294 -0.0185284185
H  -2.3808112077  2.0544858095 -0.0382647235
H   0.0169429521  2.1225071277 -0.0919837859
H  -3.5782126693 -0.0366820921  0.0015045783
N   1.6943172870  0.0131440015  0.0239437259
O   2.1945878886 -1.0145644103  0.1136951330
O   2.2208810553  1.0816074615 -0.0324230745
C  -1.8560541472 -1.2161472323 -0.0053143214
H  -2.3885295485 -2.1481059222  0.0920208820
C  -0.5193697590 -1.1838542274  0.0421162396
H   0.0375308472 -2.1389126044 -0.1184496666
14
Step 19  E=-436.5051628881  phi=139.598  theta=120.349
C  -1.8791403249  1.1554693184 -0.0314903941
C  -0.5330097880  1.1917131405 -0.0628377146
C   0.1645923984 -0.0220798330 -0.0467136766
C  -2.5415181473 -0.0195118022 -0.0181645213
H  -2.3747515415  2.0394792115 -0.0362570403
H   0.0118749964  2.1193759775 -0.0949911309
H  -3.5579292387 -0.0364975490  0.0007953487
N   1.6903825045  0.0146854293  0.0234086456
O   2.1957556124 -1.0145129516  0.1127515029
O   2.2197224502  1.0786539173 -0.0318491694
C  -1.8546040255 -1.2137245287 -0.0053355362
H  -2.3809743991 -2.1478711387  0.0910601174
C  -0.5194785663 -1.1819795291  0.0470013947
H   0.0266364905 -2.1228380721 -0.1693645566
14
Step 20  E=-436.5017222981  phi=139.597  theta=120.377
C  -1.8789028866  1.1573620830 -0.0302316538
C  -0.5326553990  1.1881253001 -0.0636122413
C   0.1622928757 -0.0196579258 -0.0466702037
C  -2.5372716914 -0.0218330231 -0.0176637990
H  -2.3712957257  2.0281709588 -0.0343366429
H   0.0070856827  2.1162394479 -0.0979278275
H  -3.5417326968 -0.0364392257 -0.0000368841
N   1.6855927554  0.0164898680  0.0227524604
O   2.1973078490 -1.0152511195  0.1118253715
O   2.2186861448  1.0761230650 -0.0312739627
C  -1.8538542096 -1.2111886921 -0.0051726677
H  -2.3736288785 -2.1481605591  0.0889387918
C  -0.5187478949 -1.1809977178  0.0514000762
H   0.0148113273 -2.1041955859 -0.2171734764
14
Step 21  E=-436.4995448315  phi=139.609  theta=120.401
C  -1.8785973836  1.1589920181 -0.0289553646
C  -0.5317181392  1.1844860833 -0.0643724355
C   0.1601870172 -0.0163928155 -0.0465081877
C  -2.5328273839 -0.0243209232 -0.0170181302
H  -2.3716259648  2.0227603359 -0.0325476801
H   0.0028349635  2.1133114930 -0.1007806318
H  -3.5319708858 -0.0365931688 -0.0009679461
N   1.6800296707  0.0184215773  0.0219840459
O   2.1991754415 -1.0166977040  0.1109070439
O   2.2177739359  1.0740607972 -0.0307002943
C  -1.8537547804 -1.2085956558 -0.0048108509
H  -2.3666994410 -2.1490300105  0.0855826778
C  -0.5172298948 -1.1808232020  0.0552468088
H   0.0028141769 -2.0842098837 -0.2614517504
14
Step 22  E=-436.4992718503  phi=139.635  theta=120.421
C  -1.8781646299  1.1602193741 -0.0276632678
C  -0.5302618751  1.1808913130 -0.0651115755
C   0.1583111627 -0.0123815393 -0.0462127365
C  -2.5281648056 -0.0268733247 -0.0162185616
H  -2.3762464937  2.0242686271 -0.0309206577
H  -0.0006323795  2.1107835021 -0.1035378508
H  -3.5297758641 -0.0370234376 -0.0019903878
N   1.6737998727  0.0203383054  0.0211143318
O   2.2012761474 -1.0187510074  0.1099849656
O   2.2169816472  1.0725009638 -0.0301305748
C  -1.8542254735 -1.2060169040 -0.0042366553
H  -2.3603771455 -2.1504837709  0.0809309529
C  -0.5150017940 -1.1813437097  0.0584919765
H  -0.0085370111 -2.0642239171 -0.3019666330
14
Step 23  E=-436.5004596776  phi=139.675  theta=120.437
C  -1.8776127454  1.1610375908 -0.0263580496
C  -0.5283604902  1.1774508438 -0.0658231539
C   0.1567005040 -0.0077495475 -0.0457689278
C  -2.5234014252 -0.0293852791 -0.0152554666
H  -2.3847734925  2.0321958074 -0.0294715330
H  -0.0031079610  2.1087971568 -0.1061882031
H  -3.5347195007 -0.0377727015 -0.0031130844
N   1.6670310817  0.0221024884  0.0201555103
O   2.2035191282 -1.0212967932  0.1090464500
O   2.2162984403  1.0714632467 -0.0295667051
C  -1.8551599010 -1.2035395351 -0.0034386619
H  -2.3548265607 -2.1524649921  0.0749387664
C  -0.5121584038 -1.1824320968  0.0611007049
H  -0.0184415028 -2.0455693472 -0.3386602406
14
Step 24  E=-436.5019151311  phi=139.729  theta=120.447
C  -1.8770117757  1.1615598210 -0.0250430815
C  -0.5260946662  1.1742873288 -0.0665010963
C   0.1553891580 -0.0026466883 -0.0451624518
C  -2.5187755868 -0.0317515588 -0.0141195518
H  -2.3960222362  2.0446984092 -0.0282034417
H  -0.0044363154  2.1074252122 -0.1087198535
H  -3.5449773831 -0.0388683192 -0.0043510226
N   1.6598678571  0.0235909211  0.0191203514
O   2.2058094046 -1.0242156743  0.1080783623
O   2.2157064327  1.0709517642 -0.0290100387
C  -1.8564318823 -1.2012639703 -0.0024082785
H  -2.3501784016 -2.1548547546  0.0675808462
C  -0.5088031535 -1.1839599871  0.0630495113
H  -0.0261969757 -2.0294242418 -0.3715876024
14
Step 25  E=-436.5026089829  phi=139.795  theta=120.452
C  -1.8764674738  1.1619687392 -0.0237220223
C  -0.5235498538  1.1715335095 -0.0671399184
C   0.1544098147  0.0027581403 -0.0443803270
C  -2.5145929231 -0.0338689767 -0.0128031456
H  -2.4083396025  2.0591748700 -0.0271098707
H  -0.0045243357  2.1066639889 -0.1111198632
H  -3.5579005041 -0.0403268915 -0.0057115758
N   1.6524671744  0.0247019463  0.0180216701
O   2.2080519203 -1.0273893204  0.1070677061
O   2.2151807557  1.0709546237 -0.0284613926
C  -1.8579032594 -1.1992990107 -0.0011406760
H  -2.3465263974 -2.1574806827  0.0588556517
C  -0.5050392605 -1.1858108542  0.0643208237
H  -0.0312723909 -2.0166822686 -0.4008323843
14
Step 26  E=-436.5022548475  phi=139.870  theta=120.452
C  -1.8760894874  1.1624583469 -0.0223984007
C  -0.5208148880  1.1693276396 -0.0677347720
C   0.1537927745  0.0082835946 -0.0434115969
C  -2.5111630566 -0.0356397487 -0.0113010644
H  -2.4199990826  2.0729329841 -0.0261784412
H  -0.0033425385  2.1064390750 -0.1133741932
H  -3.5706900213 -0.0421535231 -0.0071851749
N   1.6449939332  0.0253597651  0.0168719513
O   2.2101549825 -1.0307052401  0.1060020854
O   2.2146901339  1.0714445122 -0.0279211032
C  -1.8594322404 -1.1977545465  0.0003643028
H  -2.3439280235 -2.1601342043  0.0487893422
C  -0.5009627708 -1.1878899005  0.0648968992
H  -0.0333587489 -2.0078614816 -0.4264245442
14
Step 27  E=-436.5012320131  phi=139.949  theta=120.445
C  -1.8759668032  1.1631903749 -0.0210752456
C  -0.5179805130  1.1678069281 -0.0682813470
C   0.1535643013  0.0137435484 -0.0422479378
C  -2.5087490693 -0.0369762781 -0.0096107622
H  -2.4295065685  2.0836869926 -0.0253949058
H  -0.0009187640  2.1066229846 -0.1154682809
H  -3.5809232986 -0.0443372836 -0.0087435760
N   1.6376164490  0.0255159568  0.0156831066
O   2.2120330071 -1.0340601577  0.1048700512
O   2.2141979915  1.0723802646 -0.0273891175
C  -1.8608813205 -1.1967327775  0.0021014077
H  -2.3424080391 -2.1625937602  0.0374387455
C  -0.4966586445 -1.1901287786  0.0647555633
H  -0.0323845390 -2.0030773689 -0.4482808131
14
Step 28  E=-436.5001687830  phi=140.030  theta=120.432
C  -1.8761541515  1.1642708515 -0.0197548003
C  -0.5151373016  1.1670993840 -0.0687756262
C   0.1537443705  0.0189554726 -0.0408841246
C  -2.5075368257 -0.0378068090 -0.0077319108
H  -2.4357746626  2.0898258579 -0.0247470373
H   0.0026734980  2.1070611268 -0.1173880922
H  -3.5868570375 -0.0468463848 -0.0103440394
N   1.6305019808  0.0251486638  0.0144663201
O   2.2136085941 -1.0373621523  0.1036613393
O   2.2136640020  1.0737092203 -0.0268651029
C  -1.8621241542 -1.1963191213  0.0040595338
H  -2.3419634852 -2.1646501050  0.0248925790
C  -0.4922000670 -1.1924847022  0.0638693875
H  -0.0284925805 -2.0020846657 -0.4661864871
14
Step 29  E=-436.4995511200  phi=140.107  theta=120.414
C  -1.8766667143  1.1657413338 -0.0184383132
C  -0.5123728135  1.1673148904 -0.0692135310
C   0.1543440265  0.0237490402 -0.0393183324
C  -2.5076202031 -0.0380808806 -0.0056657092
H  -2.4381984907  2.0905180513 -0.0242281163
H   0.0073291771  2.1076011502 -0.1191214593
H  -3.5875587337 -0.0496257102 -0.0119362778
N   1.6238123685  0.0242600853  0.0132319497
O   2.2148140076 -1.0405317988  0.1023670185
O   2.2130459308  1.0753700871 -0.0263485618
C  -1.8630510893 -1.1965740914  0.0062216252
H  -2.3425688124 -2.1661295961  0.0112704896
C  -0.4876501955 -1.1949352256  0.0622083438
H  -0.0219883626 -2.0043694979 -0.4798224591
14
Step 30  E=-436.4995060497  phi=140.175  theta=120.390
C  -1.8774791206  1.1675773401 -0.0171258819
C  -0.5097681427  1.1685365692 -0.0695905228
C   0.1553627211  0.0279743386 -0.0375522809
C  -2.5089955927 -0.0377734359 -0.0034141451
H  -2.4366814257  2.0857380316 -0.0238398578
H   0.0129252363  2.1081206615 -0.1206594638
H  -3.5829465517 -0.0525980308 -0.0134700235
N   1.6176998821  0.0228729682  0.0119894573
O   2.2155921693 -1.0435025883  0.1009795691
O   2.2123015930  1.0772960037 -0.0258389345
C  -1.8635732928 -1.1975273274  0.0085649259
H  -2.3441800977 -2.1669120123 -0.0032800400
C  -0.4830650430 -1.1974709518  0.0597447037
H  -0.0132764200 -2.0092627386 -0.4888235331
14
Step 31  E=-436.4997769087  phi=140.231  theta=120.362
C  -1.8785261819  1.1696894340 -0.0158163243
C  -0.5073941935  1.1708134892 -0.0699012361
C   0.1567860669  0.0315090071 -0.0355912492
C  -2.5115613559 -0.0368867248 -0.0009793126
H  -2.4316407454  2.0762651492 -0.0235947485
H   0.0193317301  2.1085490833 -0.1219976173
H  -3.5737891089 -0.0556695340 -0.0149024149
N   1.6123033661  0.0210267245  0.0107473560
O   2.2158972882 -1.0462208941  0.0994929124
O   2.2113907624  1.0794175155 -0.0253356805
C  -1.8636254581 -1.1991746650  0.0110615199
H  -2.3467376342 -2.1669405063 -0.0185883960
C  -0.4784963141 -1.2000882745  0.0564584919
H  -0.0027994119 -2.0160483641 -0.4928465505
14
Step 32  E=-436.4998957115  phi=140.270  theta=120.329
C  -1.8797052173  1.1719267397 -0.0145070731
C  -0.5053080890  1.1741556052 -0.0701392046
C   0.1585844661  0.0342636301 -0.0334440017
C  -2.5151219165 -0.0354496530  0.0016371724
H  -2.4239943715  2.0636567310 -0.0235177328
H   0.0264191212  2.1088806959 -0.1231366183
H  -3.5616694696 -0.0587397423 -0.0162049348
N   1.6077447506  0.0187736752  0.0095131674
O   2.2156952327 -1.0486457043  0.0979024093
O   2.2102768980  1.0816652398 -0.0248383330
C  -1.8631670953 -1.2014786579  0.0136790718
H  -2.3501665519 -2.1662226369 -0.0344662906
C  -0.4739934952 -1.2027834252  0.0523421351
H   0.0090114825 -2.0240510807 -0.4916305907
14
Step 33  E=-436.4995418412  phi=140.291  theta=120.293
C  -1.8808823007  1.1740870142 -0.0131941418
C  -0.5035500425  1.1785314802 -0.0702967216
C   0.1607129791  0.0361848645 -0.0311226653
C  -2.5194002146 -0.0335149158  0.0044345869
H  -2.4151001173  2.0501484076 -0.0236468215
H   0.0340615108  2.1091774242 -0.1240825270
H  -3.5488700455 -0.0617145329 -0.0173689519
N   1.6041259755  0.0161757451  0.0082933906
O   2.2149637416 -1.0507482748  0.0962048380
O   2.2089285906  1.0839720982 -0.0243465296
C  -1.8621824151 -1.2043723970  0.0163816655
H  -2.3543755479 -2.1648229185 -0.0507130292
C  -0.4696049957 -1.2055482337  0.0474036194
H   0.0217721950 -2.0326982487 -0.4850399092
14
Step 34  E=-436.4989522761  phi=140.290  theta=120.254
C  -1.8819065424  1.1759404301 -0.0118722835
C  -0.5021409358  1.1838689702 -0.0703648517
C   0.1631126043  0.0372560552 -0.0286425875
C  -2.5240648982 -0.0311549558  0.0074131308
H  -2.4065971663  2.0383991881 -0.0240314092
H   0.0421360004  2.1095611495 -0.1248462767
H  -3.5381024255 -0.0645181036 -0.0184070953
N   1.6015263537  0.0133017821  0.0070934914
O   2.2136925566 -1.0525117953  0.0943983597
O   2.2073206801  1.0862750716 -0.0238600220
C  -1.8606788814 -1.2077659211  0.0191306447
H  -2.3592541518 -2.1628484948 -0.0671198501
C  -0.4653784380 -1.2083675043  0.0416680026
H   0.0351682813 -2.0415576337 -0.4730872879
14
Step 35  E=-436.4990323218  phi=140.268  theta=120.213
C  -1.8826355993  1.1772727245 -0.0105355424
C  -0.5010807769  1.1900587106 -0.0703335961
C   0.1657128975  0.0374954242 -0.0260221893
C  -2.5287769671 -0.0284581761  0.0105732128
H  -2.4001097235  2.0310137413 -0.0247261122
H   0.0505190192  2.1101967153 -0.1254425505
H  -3.5320231411 -0.0670963879 -0.0193458482
N   1.6000003934  0.0102255474  0.0059179148
O   2.2118835092 -1.0539311305  0.0924824763
O   2.2054350549  1.0885165017 -0.0233786738
C  -1.8586846521 -1.2115541117  0.0218853800
H  -2.3646694370 -2.1604307658 -0.0834730149
C  -0.4613602846 -1.2112177814  0.0351774136
H   0.0489663185 -2.0503544407 -0.4559392027
14
Step 36  E=-436.5008343601  phi=140.223  theta=120.171
C  -1.8829695195  1.1779431288 -0.0091783578
C  -0.5003483160  1.1969600602 -0.0701922059
C   0.1684356359  0.0369522310 -0.0232828097
C  -2.5332511238 -0.0255264811  0.0139137107
H  -2.3968448249  2.0298887087 -0.0257780879
H   0.0590804068  2.1112679663 -0.1258881577
H  -3.5325834805 -0.0694048286 -0.0202058899
N   1.5995761034  0.0070243366  0.0047701297
O   2.2095505529 -1.0550126664  0.0904579840
O   2.2032611637  1.0906449935 -0.0229024495
C  -1.8562453238 -1.2156247799  0.0246039259
H  -2.3704633765 -2.1577063155 -0.0995557335
C  -0.4575949206 -1.2140674058  0.0279897146
H   0.0630155524 -2.0589696917 -0.4339048880
14
Step 37  E=-436.5046533869  phi=140.157  theta=120.128
C  -1.8828802514  1.1779358088 -0.0077970876
C  -0.4999022391  1.2044090320 -0.0699296254
C   0.1711990906  0.0357014873 -0.0204485232
C  -2.5373120813 -0.0224738412  0.0174295038
H  -2.3972328601  2.0356197511 -0.0272090149
H   0.0676761780  2.1129503998 -0.1262001478
H  -3.5404339942 -0.0713825526 -0.0209737928
N   1.6002538284  0.0037781015  0.0036527066
O   2.2067197550 -1.0557742212  0.0883269374
O   2.2007962619  1.0926160125 -0.0224313997
C  -1.8534205561 -1.2198657308  0.0272435871
H  -2.3764522134 -2.1548006609 -0.1151492630
C  -0.4541231115 -1.2168779554  0.0201760204
H   0.0772397612 -2.0674197812 -0.4074110156
14
Step 38  E=-436.5096253541  phi=140.071  theta=120.085
C  -1.8824203334  1.1773762901 -0.0063913522
C  -0.4996842094  1.2122275100 -0.0695350180
C   0.1739223914  0.0338379171 -0.0175459084
C  -2.5409190947 -0.0194240332  0.0211093869
H  -2.4008075984  2.0472922226 -0.0289985626
H   0.0761417699  2.1153845775 -0.1263939396
H  -3.5546865732 -0.0729289117 -0.0215783502
N   1.6020056799  0.0005689413  0.0025674230
O   2.2034291427 -1.0562449890  0.0860925910
O   2.1980454830  1.0943922281 -0.0219656418
C  -1.8502810926 -1.2241699434  0.0297614535
H  -2.3824289777 -2.1518176376 -0.1300336503
C  -0.4509797911 -1.2196072892  0.0118173029
H   0.0916166693 -2.0758161993 -0.3769646965
14
Step 39  E=-436.5143002490  phi=139.968  theta=120.043
C  -1.8817048547  1.1765012622 -0.0049644461
C  -0.4996236347  1.2202327429 -0.0689982901
C   0.1765294604  0.0314698371 -0.0146037658
C  -2.5441460622 -0.0165056156  0.0249356157
H  -2.4064001009  2.0627885758 -0.0310784366
H   0.0842876530  2.1186548011 -0.1264817345
H  -3.5731765912 -0.0739015447 -0.0218862592
N   1.6047756595 -0.0025192291  0.0015153926
O   2.1997283477 -1.0564654357  0.0837593142
O   2.1950217529  1.0959436898 -0.0215053405
C  -1.8469063669 -1.2284385877  0.0321149752
H  -2.3881698647 -2.1488361886 -0.1439887893
C  -0.4481911690 -1.2222142592  0.0030004602
H   0.1061425235 -2.0843061570 -0.3431113864
14
Step 40  E=-436.5175730318  phi=139.848  theta=120.004
C  -1.8808776114  1.1755988841 -0.0035225619
C  -0.4996435718  1.2282459231 -0.0683105126
C   0.1789521841  0.0287134516 -0.0116528044
C  -2.5471304770 -0.0138440771  0.0288853822
H  -2.4125221007  2.0794203253 -0.0333405734
H   0.0918992681  2.1227768573 -0.1264714762
H  -3.5930702208 -0.0741400479 -0.0217203238
N   1.6084805614 -0.0054011720  0.0004972100
O   2.1956781667 -1.0564868900  0.0813325311
O   2.1917454886  1.0972479790 -0.0210507075
C  -1.8433824764 -1.2325821440  0.0342626237
H  -2.3934444857 -2.1459147242 -0.1567966370
C  -0.4457711857 -1.2246646340 -0.0061854673
H   0.1207841848 -2.0929995046 -0.3063979198
14
Step 41  E=-436.5191317770  phi=139.715  theta=119.967
C  -1.8800784450  1.1749486841 -0.0020732639
C  -0.4996667840  1.2360988382 -0.0674641725
C   0.1811326166  0.0256879836 -0.0087252954
C  -2.5500176830 -0.0115530938  0.0329333819
H  -2.4177398848  2.0945589336 -0.0356548144
H   0.0987434492  2.1276963899 -0.1263664681
H  -3.6115129345 -0.0735015925 -0.0208899158
N   1.6130117205 -0.0079911487 -0.0004869073
O   2.1913495713 -1.0563708288  0.0788185782
O   2.1882442401  1.0982903284 -0.0206020109
C  -1.8398001250 -1.2365202010  0.0361646482
H  -2.3980292478 -2.1431015388 -0.1682452077
C  -0.4437180410 -1.2269370299 -0.0156519883
H   0.1354311663 -2.1018940867 -0.2673493280
14
Step 42  E=-436.5192821228  phi=139.571  theta=119.934
C  -1.8794215377  1.1747793176 -0.0006238611
C  -0.4996212216  1.2436381260 -0.0664532614
C   0.1830242428  0.0225117723 -0.0058546733
C  -2.5529193443 -0.0097271255  0.0370543490
H  -2.4209222712  2.1060660366 -0.0378883707
H   0.1045809396  2.1332974035 -0.1261655614
H  -3.6261059303 -0.0718917484 -0.0192204226
N   1.6182377012 -0.0102043880 -0.0014369721
O   2.1868222798 -1.0561875876  0.0762245549
O   2.1845523391  1.0990637214 -0.0201595816
C  -1.8362522693 -1.2401805475  0.0377838938
H  -2.4017224099 -2.1404485081 -0.1781343820
C  -0.4420115395 -1.2290272292 -0.0253119721
H   0.1498617292 -2.1108175165 -0.2264634539
14
Step 43  E=-436.5185239186  phi=139.418  theta=119.906
C  -1.8789848028  1.1752461630  0.0008199482
C  -0.4994446713  1.2507273364 -0.0652732742
C   0.1845924195  0.0192992596 -0.0030750319
C  -2.5558902885 -0.0084365113  0.0412249196
H  -2.4213584169  2.1125078233 -0.0399221551
H   0.1091827157  2.1394187112 -0.1258637876
H  -3.6351688774 -0.0692826055 -0.0165744649
N   1.6240079188 -0.0119594418 -0.0023530780