14
Step 0  E=-436.5184756381  phi=37.711  theta=72.150
C  -1.8806053578  1.1909048917 -0.1057484239
C  -0.4794749469  1.2078773743 -0.0932909798
C   0.1966841337  0.0145290442  0.0023660713
C  -2.5644944189 -0.0219713615 -0.0467997414
H  -2.4313180928  2.0997259215 -0.2139271310
H   0.0528128646  2.1207102426 -0.1416206636
H  -3.6641501806 -0.0421723876 -0.0406901042
N   1.6492033733  0.0164626484  0.0161076126
O   2.2131059932 -1.0524156926  0.1056245332
O   2.2118318665  1.0849100216 -0.0346706184
C  -1.8806015673 -1.1896931906  0.0577279509
H  -2.4204371683 -2.1400218505  0.0987968512
C  -0.4821734705 -1.2378500652  0.0660083452
H   0.0888526450 -2.1170884729  0.1622174308
14
Step 1  E=-436.5053245925  phi=38.217  theta=71.662
C  -1.8751719925  1.1919584540 -0.0918373776
C  -0.4608708776  1.2079569439 -0.0910011262
C   0.2159647915  0.0271882822  0.0015388940
C  -2.5592755623 -0.0247840023 -0.0473938191
H  -2.4295084101  2.0790729964 -0.2311882431
H   0.0451053251  2.1114471253 -0.1324113246
H  -3.6640986338 -0.0562471117 -0.0162907969
N   1.6455469845  0.0210963334  0.0026895000
O   2.2046465853 -1.0478764593  0.0958204302
O   2.2152260237  1.0798061827 -0.0331719861
C  -1.8898694810 -1.1630141332  0.0630118860
H  -2.4284777305 -2.1143229524  0.0877809806
C  -0.4808943898 -1.2598224602  0.0538711463
H   0.0911295709 -2.1064609801  0.1697416174
14
Step 2  E=-436.4866211613  phi=38.689  theta=71.192
C  -1.8695012104  1.1925814984 -0.0780515391
C  -0.4429822932  1.2078913556 -0.0886943741
C   0.2345834336  0.0388029017  0.0006678758
C  -2.5549011836 -0.0268834128 -0.0477913042
H  -2.4286841638  2.0618313244 -0.2481833017
H   0.0403769172  2.1065290733 -0.1237369580
H  -3.6540385177 -0.0686428298  0.0070692731
N   1.6423502709  0.0260432701 -0.0106450738
O   2.1961846928 -1.0435206785  0.0860104390
O   2.2184343604  1.0746307193 -0.0317330158
C  -1.8986522325 -1.1379105620  0.0682693086
H  -2.4319867851 -2.0807096070  0.0771491510
C  -0.4800128091 -1.2802706296  0.0417742625
H   0.0960527780 -2.1020779255  0.1773739484
14
Step 3  E=-436.4656482006  phi=39.113  theta=70.746
C  -1.8634846330  1.1926693503 -0.0644487630
C  -0.4261167019  1.2076170331 -0.0863503916
C   0.2522806351  0.0490399653 -0.0002723076
C  -2.5515384727 -0.0277496289 -0.0479362137
H  -2.4291873840  2.0492591460 -0.2648310390
H   0.0399686033  2.1082151527 -0.1157569096
H  -3.6346217852 -0.0788473893  0.0288323390
N   1.6397051174  0.0312387441 -0.0238462097
O   2.1877515345 -1.0394226612  0.0761822881
O   2.2215175391  1.0695141317 -0.0303701690
C  -1.9064584130 -1.1149964157  0.0734606912
H  -2.4318606538 -2.0404601426  0.0673648204
C  -0.4796750609 -1.2986200567  0.0297363235
H   0.1047839424 -2.1064392273  0.1853822016
14
Step 4  E=-436.4443854511  phi=39.478  theta=70.327
C  -1.8570689079  1.1921982727 -0.0510939110
C  -0.4104978831  1.2071621514 -0.0839532135
C   0.2688130434  0.0576458754 -0.0013087328
C  -2.5492607321 -0.0268655720 -0.0477866724
H  -2.4309165345  2.0418663210 -0.2809735568
H   0.0444786422  2.1175240490 -0.1085599612
H  -3.6077456860 -0.0864086146  0.0485425168
N   1.6377064550  0.0365995848 -0.0368671738
O   2.1793807143 -1.0356522282  0.0663225494
O   2.2245426373  1.0645920610 -0.0290978603
C  -1.9127735814 -1.0947810170  0.0785539294
H  -2.4295573581 -1.9960113199  0.0588598074
C  -0.4799409786 -1.3145220324  0.0177929881
H   0.1174463102 -2.1202535872  0.1938787895
14
Step 5  E=-436.4230497248  phi=39.777  theta=69.939
C  -1.8502608046  1.1912298959 -0.0380645685
C  -0.3962516239  1.2066705486 -0.0814904013
C   0.2839500153  0.0644390426 -0.0024686653
C  -2.5480135385 -0.0237652656 -0.0473161309
H  -2.4332845823  2.0393818125 -0.2962931331
H   0.0536428005  2.1338630693 -0.1021731404
H  -3.5765941066 -0.0909668424  0.0659207340
N   1.6364467833  0.0420272001 -0.0496651729
O   2.1711087888 -1.0322742242  0.0564167805
O   2.2275815480  1.0600017891 -0.0279281781
C  -1.9170926876 -1.0776144182  0.0835236218
H  -2.4270711123 -1.9509282030  0.0519832978
C  -0.4807552189 -1.3278620996  0.0060096671
H   0.1328909587 -2.1422591968  0.2026375648
14
Step 6  E=-436.4017881771  phi=40.004  theta=69.589
C  -1.8431174224  1.1898973565 -0.0254514155
C  -0.3834159740  1.2063791375 -0.0789509334
C   0.2974734780  0.0693040109 -0.0037786515
C  -2.5475888152 -0.0180849445 -0.0465132826
H  -2.4353237850  2.0409294081 -0.3102886683
H   0.0664935306  2.1552137684 -0.0965863322
H  -3.5455608917 -0.0922907925  0.0809335259
N   1.6360097462  0.0474120712 -0.0622018738
O   2.1629756181 -1.0293481899  0.0464497503
O   2.2307087867  1.0558782518 -0.0268707269
C  -1.9189597882 -1.0636536231  0.0883484792
H  -2.4267934482 -1.9096206386  0.0469605755
C  -0.4819721553 -1.3387053378 -0.0055192498
H   0.1490177747 -2.1697759859  0.2110762565
14
Step 7  E=-436.3827750882  phi=40.156  theta=69.282
C  -1.8357262920  1.1883814106 -0.0133530649
C  -0.3719666943  1.2065601302 -0.0763231674
C   0.3091813180  0.0721869663 -0.0052643942
C  -2.5476349203 -0.0096078123 -0.0453785165
H  -2.4358861244  2.0453170295 -0.3223219270
H   0.0816918529  2.1787472274 -0.0917757952
H  -3.5198116083 -0.0902960877  0.0938139878
N   1.6364632159  0.0526394133 -0.0744435692
O   2.1550241954 -1.0269281815  0.0364057165
O   2.2339987301  1.0523496489 -0.0259325991
C  -1.9180224501 -1.0528797596  0.0930060086
H  -2.4311224731 -1.8765802309  0.0438884379
C  -0.4834102485 -1.3472137656 -0.0166835680
H   0.1633969836 -2.1995814873  0.2183971048
14
Step 8  E=-436.3700158433  phi=40.235  theta=69.025
C  -1.8281828499  1.1868866240 -0.0018679176
C  -0.3618430949  1.2074585426 -0.0735937597
C   0.3188933686  0.0730918698 -0.0069511948
C  -2.5477307254  0.0017060227 -0.0439129520
H  -2.4338536072  2.0513188617 -0.3317040736
H   0.0978538017  2.2015133755 -0.0877159639
H  -3.5042461789 -0.0850089328  0.1049664652
N   1.6378524216  0.0575955270 -0.0863609247
O   2.1473003930 -1.0250625950  0.0262687759
O   2.2375224169  1.0495327562 -0.0251185112
C  -1.9141015505 -1.0451782861  0.0974640373
H  -2.4417642390 -1.8551331258  0.0427957570
C  -0.4849000043 -1.3535776178 -0.0273732337
H   0.1738137334 -2.2286264086  0.2237700557
14
Step 9  E=-436.3664474853  phi=40.243  theta=68.823
C  -1.8205714937  1.1856243595  0.0089139051
C  -0.3529653664  1.2092491654 -0.0707476834
C   0.3264595299  0.0720761272 -0.0088647108
C  -2.5475163680  0.0157076840 -0.0420990620
H  -2.4282969610  2.0578774675 -0.3377837063
H   0.1137657419  2.2209364838 -0.0843806985
H  -3.5019807263 -0.0764536146  0.1147279855
N   1.6401937723  0.0621743137 -0.0979282993
O   2.1398527053 -1.0237938521  0.0160232373
O   2.2413441056  1.0475280827 -0.0244311164
C  -1.9072541211 -1.0404395760  0.1016720918
H  -2.4589654447 -1.8462475605  0.0437483270
C  -0.4863086830 -1.3579765798 -0.0374895774
H   0.1785581567 -2.2544078895  0.2264651445
14
Step 10  E=-436.3714163262  phi=40.187  theta=68.680
C  -1.8129526911  1.1848027540  0.0189169802
C  -0.3452438665  1.2120172900 -0.0677689749
C   0.3317684127  0.0692452956 -0.0110316814
C  -2.5468140025  0.0320682183 -0.0398824702
H  -2.4185659064  2.0642151067 -0.3400138455
H   0.1284840890  2.2350622212 -0.0817400470
H  -3.5131152803 -0.0645187517  0.1231034318
N   1.6434703547  0.0662834592 -0.1091227094
O   2.1327316356 -1.0231581796  0.0056540194
O   2.2455178209  1.0464151168 -0.0238715110
C  -1.8977879018 -1.0386050291  0.1055598137
H  -2.4811923674 -1.8482459304  0.0469108675
C  -0.4875445709 -1.3605655093 -0.0469506971
H   0.1765019050 -2.2750741085  0.2259144591
14
Step 11  E=-436.3815102796  phi=40.073  theta=68.597
C  -1.8053562282  1.1846206650  0.0280851085
C  -0.3385844962  1.2157562900 -0.0646418370
C   0.3347550233  0.0647467021 -0.0134802972
C  -2.5456558823  0.0503115137 -0.0371713783
H  -2.4043248007  2.0698793261 -0.3379941550
H   0.1413636149  2.2426318158 -0.0797571488
H  -3.5347034025 -0.0489204026  0.1296865694
N   1.6476300865  0.0698496564 -0.1199225976
O   2.1259890884 -1.0231852928 -0.0048529540
O   2.2500841608  1.0462480138 -0.0234399098
C  -1.8862068797 -1.0396309004  0.1090463632
H  -2.5055437563 -1.8576607166  0.0525046400
C  -0.4885502035 -1.3614729363 -0.0556932542
H   0.1670704038 -2.2893993233  0.2217270659
14
Step 12  E=-436.3933254706  phi=39.909  theta=68.575
C  -1.7977794565  1.1852623705  0.0363841867
C  -0.3328936554  1.2203734786 -0.0613518223
C   0.3354060924  0.0587622684 -0.0162400493
C  -2.5442118583  0.0698682245 -0.0338574815
H  -2.3855560685  2.0747543353 -0.3314944248
H   0.1520588608  2.2430787685 -0.0783872513
H  -3.5619436967 -0.0293088011  0.1338319518
N   1.6525871304  0.0728223528 -0.1303066382
O   2.1196776380 -1.0238979425 -0.0155104002
O   2.2550676694  1.0470521224 -0.0231364289
C  -1.8731169799 -1.0434199698  0.1120555924
H  -2.5285975915 -1.8705439992  0.0607056339
C  -0.4892928597 -1.3608031159 -0.0636731141
H   0.1501926958 -2.2967334132  0.2136855043
14
Step 13  E=-436.4049642047  phi=39.705  theta=68.613
C  -1.7901890693  1.1868910592  0.0438036033
C  -0.3280844212  1.2256982536 -0.0578868649
C   0.3337620306  0.0515009409 -0.0193410216
C  -2.5426864283  0.0901360024 -0.0298435813
H  -2.3625487610  2.0790601090 -0.3204661925
H   0.1605264113  2.2365121926 -0.0775793465
H  -3.5896936535 -0.0054321732  0.1349191575
N   1.6582266232  0.0751757938 -0.1402528296
O   2.1138496113 -1.0253113696 -0.0263293851
O   2.2604750575  1.0488217074 -0.0229618874
C  -1.8591398393 -1.0497796677  0.1145286703
H  -2.5471729739 -1.8834475189  0.0715667608
C  -0.4897571407 -1.3586362758 -0.0708662370
H   0.1262700341 -2.2969811293  0.2017429388
14
Step 14  E=-436.4156796655  phi=39.469  theta=68.707
C  -1.7825252079  1.1896404986  0.0503562436
C  -0.3240839743  1.2314898161 -0.0542379828
C   0.3299153819  0.0431910809 -0.0228126922
C  -2.5412477638  0.1105315152 -0.0250625969
H  -2.3358798193  2.0833469827 -0.3050456121
H   0.1670387845  2.2237121349 -0.0772805840
H  -3.6135230120  0.0227486903  0.1325371974
N   1.6644121560  0.0769091931 -0.1497380552
O   2.1085559658 -1.0274326401 -0.0373191107
O   2.2662945039  1.0515192013 -0.0229185279
C  -1.8448581292 -1.0584207066  0.1164308021
H  -2.5587612868 -1.8938535738  0.0849950656
C  -0.4899414828 -1.3550247710 -0.0772702543
H   0.0961737434 -2.2906326759  0.1860288508
14
Step 15  E=-436.4249850821  phi=39.210  theta=68.853
C  -1.7747076722  1.1936058356  0.0560769958
C  -0.3208411256  1.2374447734 -0.0503995683
C   0.3240063390  0.0340730841 -0.0266824235
C  -2.5399990978  0.1305279189 -0.0194842024
H  -2.3063853462  2.0884796597 -0.2855452923
H   0.1722057282  2.2061274917 -0.0774435705
H  -3.6301679962  0.0550255690  0.1265484968
N   1.6709949561  0.0780450068 -0.1587382011
O   2.1038451318 -1.0302597542 -0.0484868187
O   2.2724961525  1.0550761939 -0.0230105568
C  -1.8307892319 -1.0689776702  0.1177529111
H  -2.5616804083 -1.9002410627  0.1007670087
C  -0.4898583222 -1.3499851888 -0.0829064412
H   0.0612624110 -2.2788422941  0.1668608008
14
Step 16  E=-436.4322341706  phi=38.934  theta=69.048
C  -1.7666454355  1.1988367820  0.0610194241
C  -0.3183314757  1.2432083043 -0.0463692969
C   0.3162154284  0.0243924325 -0.0309737702
C  -2.5389740729  0.1496782433 -0.0131131158
H  -2.2751112895  2.0955917844 -0.2624278015
H   0.1769821229  2.1858333342 -0.0780357970
H  -3.6376157216  0.0909623963  0.1170764933
N   1.6778234375  0.0786255586 -0.1672287638
O   2.0997616606 -1.0337807328 -0.0598377832
O   2.2790337620  1.0593961179 -0.0232444383
C  -1.8173739120 -1.0810311002  0.1185102909
H  -2.5551005593 -1.9020207484  0.1185588875
C  -0.4895362444 -1.3434886923 -0.0878208857
H   0.0233858575 -2.2635210273  0.1447493509
14
Step 17  E=-436.4368211963  phi=38.649  theta=69.288
C  -1.7582494754  1.2053352735  0.0652504115
C  -0.3165566114  1.2483944303 -0.0421478374
C   0.3067553817  0.0143935014 -0.0357048678
C  -2.5381372278  0.1676281470 -0.0059837591
H  -2.2432290046  2.1059820179 -0.2362528931
H   0.1826213605  2.1653735668 -0.0790480517
H  -3.6350627447  0.1299385724  0.1044649404
N   1.6847519471  0.0787083629 -0.1751858281
O   2.0963449224 -1.0379726218 -0.0713753919
O   2.2858473383  1.0643584391 -0.0236288967
C  -1.8049691072 -1.0941216804  0.1187394282
H  -2.5390564401 -1.8994796974  0.1379825920
C  -0.4890188677 -1.3354583615 -0.0920825164
H  -0.0151807528 -2.2473564712  0.1203689740
14
Step 18  E=-436.4386685186  phi=38.359  theta=69.568
C  -1.7494492934  1.2130623457  0.0688427472
C  -0.3155324384  1.2526225163 -0.0377390288
C   0.2958633243  0.0043147017 -0.0408872347
C  -2.5373805763  0.1841191031  0.0018461338
H  -2.2119086965  2.1209256541 -0.2075967765
H   0.1905213664  2.1474104211 -0.0804952744
H  -3.6228830588  0.1712020285  0.0892310009
N   1.6916478651  0.0783606083 -0.1825872790
O   2.0936278801 -1.0428006299 -0.0831012827
O   2.2928664590  1.0698239508 -0.0241746376
C  -1.7938386050 -1.1077535212  0.1184929434
H  -2.5144957196 -1.8937833349  0.1586296007
C  -0.4883548966 -1.3257860459 -0.0957750678
H  -0.0519435872 -2.2336040317  0.0944619907
14
Step 19  E=-436.4383650931  phi=38.071  theta=69.887
C  -1.7402108388  1.2219556679  0.0718670273
C  -0.3152643304  1.2555706392 -0.0331512731
C   0.2837938914 -0.0056144111 -0.0465250876
C  -2.5365165099  0.1989831089  0.0103022923
H  -2.1821640053  2.1414039819 -0.1769587856
H   0.2019343733  2.1341708615 -0.0824008277
H  -3.6026367765  0.2139335629  0.0720122141
N   1.6983966443  0.0776533522 -0.1894140777
O   2.0916360816 -1.0482175002 -0.0950154963
O   2.3000139117  1.0756406531 -0.0248938449
C  -1.7841420287 -1.1213910658  0.1178323309
H  -2.4833476208 -1.8870151714  0.1801327006
C  -0.4875759230 -1.3143826124 -0.0989820784
H  -0.0845729174 -2.2254862835  0.0676658439
14
Step 20  E=-436.4366734277  phi=37.788  theta=70.246
C  -1.7305508289  1.2319530899  0.0743857254
C  -0.3157143822  1.2570325069 -0.0284003757
C   0.2708141751 -0.0151734141 -0.0526151779
C  -2.5352729425  0.2121283904  0.0193016841
H  -2.1547084598  2.1678100331 -0.1446909350
H   0.2175969745  2.1268397985 -0.0847608097
H  -3.5770616385  0.2573300647  0.0534967633
N   1.7049047544  0.0766560377 -0.1956514317
O   2.0903869609 -1.0541632996 -0.1071166200
O   2.3072092510  1.0816497101 -0.0257995348
C  -1.7759306929 -1.1344588247  0.1168184404
H  -2.4485111743 -1.8821570969  0.2022491035
C  -0.4866686774 -1.3012603577 -0.1017700995
H  -0.1113692827 -2.2252283732  0.0403251523
14
Step 21  E=-436.4341316609  phi=37.516  theta=70.644
C  -1.7205423154  1.2430135830  0.0764523080
C  -0.3167754070  1.2569525954 -0.0235127752
C   0.2572001496 -0.0241485091 -0.0591470042
C  -2.5333047944  0.2235186182  0.0287617247
H  -2.1298782017  2.1997422222 -0.1109884007
H   0.2374439861  2.1251938273 -0.0875010392
H  -3.5499009384  0.3007048571  0.0343300995
N   1.7111008124  0.0754318553 -0.2012897578
O   2.0898894350 -1.0605657723 -0.1194018848
O   2.3143719190  1.0876910590 -0.0269048693
C  -1.7691668231 -1.1463626641  0.1155021373
H  -2.4135673075 -1.8828166438  0.2249394651
C  -0.4855616109 -1.2866108728 -0.1041812776
H  -0.1315743674 -2.2331509183  0.0124202786
14
Step 22  E=-436.4314742322  phi=37.259  theta=71.084
C  -1.7103085396  1.2551259320  0.0781159758
C  -0.3182666842  1.2554202587 -0.0185270279
C   0.2432347196 -0.0323283754 -0.0661032304
C  -2.5302385174  0.2331510274  0.0386094056
H  -2.1076525804  2.2359900169 -0.0759497989
H   0.2605754961  2.1277005644 -0.0904520295
H  -3.5253659973  0.3435695236  0.0150163015
N   1.7169353333  0.0740344049 -0.2063253782
O   2.0901438486 -1.0673413765 -0.1318672048
O   2.3214238197  1.0936082381 -0.0282224972
C  -1.7637828192 -1.1565527307  0.1139221210
H  -2.3820193362 -1.8924714402  0.2483624971
C  -0.4841417122 -1.2708254428 -0.1062421845
H  -0.1453217476 -2.2474332495 -0.0163064365
14
Step 23  E=-436.4297468131  phi=37.023  theta=71.566
C  -1.7000068855  1.2683013772  0.0794292926
C  -0.3199541109  1.2526278531 -0.0134921952
C   0.2292068996 -0.0395003700 -0.0734602896
C  -2.5257571788  0.2410438232  0.0487853478
H  -2.0877552065  2.2747293261 -0.0396728762
H   0.2854971373  2.1320219202 -0.0933591448
H  -3.5071388208  0.3856187094 -0.0041266820
N   1.7223794403  0.0725058147 -0.2107608926
O   2.0911422641 -1.0743969997 -0.1445071534
O   2.3282913294  1.0992522794 -0.0297640504
C  -1.7597712733 -1.1646275955  0.1121183304
H  -2.3561699908 -1.9132438167  0.2726854733
C  -0.4822946975 -1.2544420211 -0.1079813862
H  -0.1532890862 -2.2647336227 -0.0461133626
14
Step 24  E=-436.4291155092  phi=36.812  theta=72.090
C  -1.6898091389  1.2825553502  0.0804545394
C  -0.3215832521  1.2488177979 -0.0084638508
C   0.2154106497 -0.0454493128 -0.0811890841
C  -2.5197011541  0.2472405908  0.0592371285
H  -2.0697840189  2.3138415503 -0.0023348749
H   0.3104888004  2.1356333683 -0.0959209769
H  -3.4971998532  0.4265564574 -0.0228892956
N   1.7274226823  0.0708762816 -0.2146052344
O   2.0928690501 -1.0816322203 -0.1573148973
O   2.3349067156  1.1044846750 -0.0315397806
C  -1.7572498454 -1.1704285859  0.1101578069
H  -2.3362861498 -1.9447949607  0.2977453058
C  -0.4799461228 -1.2380569403 -0.1094419723
H  -0.1563111656 -2.2812103041 -0.0770800408
14
Step 25  E=-436.4282862445  phi=36.632  theta=72.655
C  -1.6798843311  1.2978872545  0.0812660758
C  -0.3229106633  1.2442411053 -0.0034994137
C   0.2021416606 -0.0499610244 -0.0892558071
C  -2.5121256361  0.2518259491  0.0699037108
H  -2.0533234584  2.3512330993  0.0357712554
H   0.3339334788  2.1363003018 -0.0978330167
H  -3.4951594879  0.4658365655 -0.0409855587
N   1.7320704177  0.0691646082 -0.2178734549
O   2.0953016432 -1.0889419425 -0.1702821132
O   2.3412089765  1.1091793957 -0.0335582882
C  -1.7564408044 -1.1740500213  0.1081516892
H  -2.3207552595 -1.9841940285  0.3228155602
C  -0.4770877621 -1.2222498884 -0.1106828462
H  -0.1551407065 -2.2933644542 -0.1090618551
14
Step 26  E=-436.4259330860  phi=36.491  theta=73.258
C  -1.6703868241  1.3142645878  0.0819485522
C  -0.3237260869  1.2391345246  0.0013458040
C   0.1896918091 -0.0528310384 -0.0976232917
C  -2.5032724757  0.2549342376  0.0807027913
H  -2.0380178641  2.3850733003  0.0742434441
H   0.3545232482  2.1323324111 -0.0988217852
H  -3.4985795544  0.5025183207 -0.0578993166
N   1.7363408963  0.0673795749 -0.2205862938
O   2.0984115482 -1.0962191900 -0.1833989108
O   2.3471447407  1.1132239425 -0.0358264802
C  -1.7575780460 -1.1757530192  0.1062456844
H  -2.3070980597 -2.0269001797  0.3466953174
C  -0.4737866572 -1.2075411187 -0.1117722888
H  -0.1503700823 -2.2984763451 -0.1417378461
14
Step 27  E=-436.4221884100  phi=36.393  theta=73.896
C  -1.6614487072  1.3316134455  0.0825925211
C  -0.3238675195  1.2337124027  0.0060218482
C   0.1783405923 -0.0538790050 -0.1062528202
C  -2.4934793856  0.2567397559  0.0915313156
H  -2.0236077644  2.4139330257  0.1126036478
H   0.3713490590  2.1226750068 -0.0986644716
H  -3.5040160445  0.5353536876 -0.0728797200
N   1.7402619569  0.0655214584 -0.2227696740
O   2.1021654798 -1.1033578164 -0.1966538007
O   2.3526672224  1.1165205924 -0.0383494945
C  -1.7608137912 -1.1758483679  0.1045920539
H  -2.2930266135 -2.0680911329  0.3680210898
C  -0.4701789773 -1.1943708693 -0.1127797844
H  -0.1424427771 -2.2947229418 -0.1746833802
14
Step 28  E=-436.4185188242  phi=36.344  theta=74.565
C  -1.6531743339  1.3498146095  0.0832892151
C  -0.3232293822  1.2281661425  0.0104868730
C   0.1683439846 -0.0529681223 -0.1151065549
C  -2.4830873599  0.2574354249  0.1022771391
H  -2.0099418583  2.4368476630  0.1503408080
H   0.3839395515  2.1069093521 -0.0971974889
H  -3.5080836296  0.5630186578 -0.0850609852
N   1.7438677978  0.0635842419 -0.2244541469
O   2.1065263214 -1.1102551971 -0.2100336953
O   2.3577369086  1.1189862726 -0.0411307087
C  -1.7661725520 -1.1746126013  0.1033232253
H  -2.2770174870 -2.1036023450  0.3855600329
C  -0.4664531400 -1.1830856731 -0.1137693104
H  -0.1316892710 -2.2811504793 -0.2074318079
14
Step 29  E=-436.4165887655  phi=36.347  theta=75.258
C  -1.6456357893  1.3687028453  0.0841255555
C  -0.3217681694  1.2226659515  0.0147096517
C   0.1599222902 -0.0500271264 -0.1241499090
C  -2.4723845899  0.2572133034  0.1128327479
H  -1.9969785524  2.4533387480  0.1869536511
H   0.3922790620  2.0852320204 -0.0943204497
H  -3.5081050465  0.5843332172 -0.0936069328
N   1.7471958396  0.0615577602 -0.2256743940
O   2.1114541232 -1.1168146246 -0.2235239784
O   2.3623220746  1.1205521802 -0.0441717593
C  -1.7735490706 -1.1722518141  0.1025373327
H  -2.2584260891 -2.1303298443  0.3983723187
C  -0.4628269855 -1.1739216924 -0.1147950126
H  -0.1183512961 -2.2576298109 -0.2395221973
14
Step 30  E=-436.4171980542  phi=36.404  theta=75.972
C  -1.6388693628  1.3880675329  0.0851796787
C  -0.3195075147  1.2173619263  0.0186718536
C   0.1532486236 -0.0450721279 -0.1333533287
C  -2.4615868451  0.2562529061  0.1231051066
H  -1.9847866515  2.4634208672  0.2219911413
H   0.3968233852  2.0584479462 -0.0899994435
H  -3.5023434642  0.5983934973 -0.0978140650
N   1.7502837433  0.0594294492 -0.2264688390
O   2.1169071032 -1.1229472607 -0.2371086475
O   2.3663981997  1.1211636769 -0.0474725049
C  -1.7827276625 -1.1688964839  0.1022940350
H  -2.2373787903 -2.1463007286  0.4058671826
C  -0.4595239246 -1.1669826017 -0.1158983897
H  -0.1025783266 -2.2248556708 -0.2705455511
14
Step 31  E=-436.4197876925  phi=36.514  theta=76.702
C  -1.6328739222  1.4076541037  0.0865169097
C  -0.3165412641  1.2123838659  0.0223698588
C   0.1484410631 -0.0382230186 -0.1426931053
C  -2.4508375491  0.2547158735  0.1330209367
H  -1.9735486753  2.4676061703  0.2550925492
H   0.3985238465  2.0279719402 -0.0842694536
H  -3.4900055750  0.6046270170 -0.0971648074
N   1.7531669088  0.0571858747 -0.2268793079
O   2.1228423820 -1.1285736371 -0.2507704928
O   2.3699475908  1.1207800043 -0.0510309753
C  -1.7934061023 -1.1646070727  0.1026150246
H  -2.2146258454 -2.1506342375  0.4078110252
C  -0.4567544152 -1.1622170557 -0.1171057387
H  -0.0843907700 -2.1843965674 -0.3002032724
14
Step 32  E=-436.4226023620  phi=36.671  theta=77.443
C  -1.6276119886  1.4271669928  0.0881860789
C  -0.3130323742  1.2078412110  0.0258156760
C   0.1455604269 -0.0297091328 -0.1521510793
C  -2.4402130256  0.2527432674  0.1425291692
H  -1.9635644689  2.4669026657  0.2860281640
H   0.3988387830  1.9958079249 -0.0772323552
H  -3.4711817219  0.6028124431 -0.0913510597
N   1.7558766849  0.0548138368 -0.2269506756
O   2.1292165846 -1.1336246366 -0.2644913143
O   2.3729593623  1.1193738586 -0.0548433420
C  -1.8052170861 -1.1593781191  0.1034850901
H  -2.1914309425 -2.1435259380  0.4043292734
C  -0.4547064092 -1.1594049179 -0.1184248922
H  -0.0636151055 -2.1387493801 -0.3283818648
14
Step 33  E=-436.4234853253  phi=36.871  theta=78.191
C  -1.6230139666  1.4462761355  0.0902163628
C  -0.3092035767  1.2038270958  0.0290362304
C   0.1446139729 -0.0198610467 -0.1617135306
C  -2.4297252922  0.2504526227  0.1516022839
H  -1.9552480457  2.4627861115  0.3147366365
H   0.3996778504  1.9644472563 -0.0690426336
H  -3.4468106390  0.5930961768 -0.0802881572
N   1.7584393407  0.0523007465 -0.2267304647
O   2.1359864336 -1.1380419090 -0.2782521708
O   2.3754295109  1.1169310240 -0.0589039161
C  -1.8177462410 -1.1531361157  0.1048522253
H  -2.1694984935 -2.1263016067  0.3959182586
C  -0.4535435634 -1.1581649664 -0.1198418468
H  -0.0398183100 -2.0912867767 -0.3552267822
14
Step 34  E=-436.4211058017  phi=37.101  theta=78.943
C  -1.6189860112  1.4646297103  0.0926155293
C  -0.3053140492  1.2004322199  0.0320701115
C   0.1455637014 -0.0090889260 -0.1713696765
C  -2.4193206131  0.2479344770  0.1602371630
H  -1.9491064471  2.4571105101  0.3413473159
H   0.4032014954  1.9366105430 -0.0598715730
H  -3.4186886753  0.5760158405 -0.0641266743
N   1.7608757159  0.0496343222 -0.2262684389
O   2.1431092920 -1.1417778677 -0.2920336365
O   2.3773610492  1.1134500902 -0.0632051440
C  -1.8305486071 -1.1457330715  0.1066278614
H  -2.1509050892 -2.1015093622  0.3834560205
C  -0.4534037047 -1.1579983255 -0.1213213595
H  -0.0123162508 -2.0459247849 -0.3811654858
14
Step 35  E=-436.4159730995  phi=37.353  theta=79.692
C  -1.6154219610  1.4818755547  0.0953712435
C  -0.3016181805  1.1977712983  0.0349614248
C   0.1483366518  0.0021487758 -0.1811100047
C  -2.4088773250  0.2452510151  0.1684546676
H  -1.9456874215  2.4519180900  0.3661684848
H   0.4114185193  1.9147944800 -0.0498487039
H  -3.3894836774  0.5525146348 -0.0432522724
N   1.7632013407  0.0468016111 -0.2256162621
O   2.1505437242 -1.1447954312 -0.3058160513
O   2.3787641642  1.1089422780 -0.0677375712
C  -1.8431670132 -1.1369462189  0.1086909235
H  -2.1379868216 -2.0729213966  0.3681694845
C  -0.4543852170 -1.1583744420 -0.1228186268
H   0.0196232913 -2.0063836620 -0.4067949717
14
Step 36  E=-436.4104379288  phi=37.614  theta=80.432
C  -1.6122188602  1.4976917537  0.0984571876
C  -0.2983118413  1.1960145122  0.0377521300
C   0.1528344097  0.0133807586 -0.1909244388
C  -2.3982128659  0.2424417213  0.1762956492
H  -1.9454875048  2.4491323462  0.3896215488
H   0.4256362127  1.9007110055 -0.0390004615
H  -3.3626411795  0.5239020285 -0.0182447510
N   1.7654267185  0.0437877447 -0.2248273062
O   2.1582500858 -1.1470677284 -0.3195797326
O   2.3796563633  1.1034313220 -0.0724897350
C  -1.8551562153 -1.1265053237  0.1109015132
H  -2.1331272977 -2.0451982896  0.3514879650
C  -0.4565142432 -1.1588406745 -0.1243052693
H   0.0563255533 -1.9751979460 -0.4325812431
14
Step 37  E=-436.4075305204  phi=37.873  theta=81.150
C  -1.6092938081  1.5118219608  0.1018442864
C  -0.2954855253  1.1954039860  0.0404760297
C   0.1589398461  0.0241572260 -0.2008001120
C  -2.3871163667  0.2395419402  0.1838105260
H  -1.9488292211  2.4501790779  0.4121175569
H   0.4459887837  1.8948616462 -0.0272256004
H  -3.3419972834  0.4917018770  0.0102407486
N   1.7675575295  0.0405746620 -0.2239566573
O   2.1661914904 -1.1485778168 -0.3333052378
O   2.3800626432  1.0969534514 -0.0774479648
C  -1.8661144733 -1.1141728157  0.1131281375
H  -2.1384092672 -2.0229399679  0.3347321953
C  -0.4597065273 -1.1591045887 -0.1257992438
H   0.0971843635 -1.9530110620 -0.4584947701
14
Step 38  E=-436.4092242069  phi=38.119  theta=81.829
C  -1.6065977682  1.5241049475  0.1055142556
C  -0.2931077087  1.1962361323  0.0431568426
C   0.1665199852  0.0340799008 -0.2107184008
C  -2.3754208644  0.2366156928  0.1910425343
H  -1.9557425270  2.4556570375  0.4339080995
H   0.4713249441  1.8964944536 -0.0143341064
H  -3.3309394170  0.4573731162  0.0416728979
N   1.7695946222  0.0371401654 -0.2230611963
O   2.1743343890 -1.1493188718 -0.3469735858
O   2.3800159300  1.0895574550 -0.0825961726
C  -1.8757186976 -1.0998750677  0.1152816865
H  -2.1551670549 -2.0091671131  0.3187146747
C  -0.4637568511 -1.1590421603 -0.1273770970
H   0.1404507743 -1.9386667582 -0.4838524710
14
Step 39  E=-436.4149739926  phi=38.344  theta=82.447
C  -1.6041213830  1.5344863916  0.1094699878
C  -0.2910454185  1.1988116743  0.0458094259
C   0.1754259320  0.0428259643 -0.2206513988
C  -2.3631035122  0.2337906390  0.1980128511
H  -1.9659017023  2.4652041330  0.4549741330
H   0.4995234639  1.9039670471 -0.0001307553
H  -3.3312466041  0.4220170995  0.0758306334
N   1.7715335732  0.0334573649 -0.2221996193
O   2.1826485068 -1.1492947960 -0.3605665381
O   2.3795571299  1.0813051014 -0.0879157555
C  -1.8837518527 -1.0838213538  0.1173346652
H  -2.1835952568 -2.0039770411  0.3035024531
C  -0.4683720253 -1.1586402324 -0.1291584131
H   0.1835353911 -1.9299896763 -0.5074925900
14
Step 40  E=-436.4218619519  phi=38.544  theta=82.981
C  -1.6018904310  1.5430075283  0.1137380400
C  -0.2891061834  1.2033769488  0.0484410550
C   0.1854913219  0.0501645310 -0.2305586824
C  -2.3503604346  0.2312722514  0.2047212488
H  -1.9786519923  2.4776259984  0.4750073984
H   0.5280256355  1.9152880138  0.0155068396
H  -3.3422154850  0.3862856920  0.1128139751
N   1.7733634485  0.0294951103 -0.2214321082
O   2.1911061500 -1.1485209948 -0.3740668614
O   2.3787337670  1.0722715100 -0.0933855561
C  -1.8901087124 -1.0665196813  0.1193076129
H  -2.2226218479 -2.0044055673  0.2885567842
C  -0.4732272932 -1.1579260032 -0.1312752852
H   0.2235900561 -1.9246697496 -0.5281197158
14
Step 41  E=-436.4267460472  phi=38.716  theta=83.409
C  -1.5999532828  1.5497769880  0.1183629163
C  -0.2870769673  1.2100803562  0.0510509826
C   0.1965307054  0.0559642123 -0.2403851394
C  -2.3375981718  0.2293259862  0.2111660076
H  -1.9931155488  2.4912191715  0.4934874353
H   0.5543478474  1.9285583261  0.0325905099
H  -3.3607457840  0.3505739641  0.1528259362
N   1.7750663698  0.0252179823 -0.2208198068
O   2.1996830509 -1.1470246571 -0.3874585507
O   2.3776007953  1.0625450756 -0.0989820384
C  -1.8947763458 -1.0486731492  0.1212326258
H  -2.2701239034 -2.0056400180  0.2731418368
C  -0.4780147384 -1.1569218422 -0.1338464045
H   0.2580364944 -1.9208095954 -0.5445946773
14
Step 42  E=-436.4284050866  phi=38.861  theta=83.713
C  -1.5983657476  1.5549379173  0.1233969602
C  -0.2847518386  1.2189551216  0.0536289806
C   0.2083397374  0.0601905257 -0.2500606260
C  -2.3253423344  0.2282416333  0.2173686200
H  -2.0083304964  2.5041426444  0.5098078664
H   0.5763969929  1.9422295374  0.0510223397
H  -3.3823647146  0.3153211643  0.1958869944
N   1.7766174455  0.0205867078 -0.2204241165
O   2.2083566283 -1.1448453357 -0.4007273054
O   2.3762192593  1.0522277320 -0.1046795762
C  -1.8978011942 -1.0310335668  0.1231211869
H  -2.3233473669 -2.0026462650  0.2566922425
C  -0.4824710893 -1.1556296966 -0.1369640302
H   0.2848269584 -1.9171048133 -0.5560806154
14
Step 43  E=-436.4278531129  phi=38.983  theta=83.880
C  -1.5971778956  1.5586406210  0.1288904462
C  -0.2819476548  1.2299241477  0.0561545742
C   0.2206983782  0.0628947822 -0.2595017351
C  -2.3141232145  0.2283008202  0.2233860400
H  -2.0233760753  2.5147170596  0.5233972358
H   0.5926013611  1.9551970862  0.0706186515
H  -3.4024836733  0.2811939429  0.2416817052
N   1.7779857324  0.0155589925 -0.2203057889
O   2.2171061412 -1.1420349896 -0.4138605219
O   2.3746550752  1.0414343368 -0.1104507178