14
Step 0  E=-436.4856647627  phi=36.869  theta=73.569
C  -1.9018528497  1.1727072732 -0.0477742262
C  -0.4769670465  1.2090236481 -0.0525998623
C   0.1990302383  0.0320268134 -0.0408508880
C  -2.6173232234 -0.0301307764 -0.0148396788
H  -2.4417410096  2.1137865068 -0.0591660495
H   0.0611671958  2.1479760163 -0.0520823321
H  -3.6952297299 -0.0200904313 -0.0040712293
N   1.6711915313  0.0358228810  0.0208255401
O   2.2179700820 -1.0816963816  0.1287529452
O   2.2434302203  1.1377221995 -0.0391008189
C  -1.9266822228 -1.2276443786  0.0051321315
H  -2.4514998770 -2.1713696138  0.0389626576
C  -0.4587330702 -1.2763382462 -0.0365600771
H   0.0226483946 -2.0241525392  0.5965999774
14
Step 1  E=-436.4870578146  phi=36.795  theta=73.563
C  -1.9016440466  1.1725474706 -0.0477784558
C  -0.4777551313  1.2094107339 -0.0527419935
C   0.1987282146  0.0304414441 -0.0409619152
C  -2.6174055363 -0.0300960677 -0.0149692245
H  -2.4411534206  2.1132751832 -0.0590934507
H   0.0600064090  2.1460791576 -0.0525010294
H  -3.6845658018 -0.0192595408 -0.0038223175
N   1.6720948400  0.0362856589  0.0208834434
O   2.2177052239 -1.0808886698  0.1287065781
O   2.2427710101  1.1365271538 -0.0391063391
C  -1.9258263027 -1.2283266563  0.0050072897
H  -2.4450028913 -2.1603935848  0.0398907359
C  -0.4599209682 -1.2749381132 -0.0354357503
H   0.0235819479 -2.0266190120  0.5885016806
14
Step 2  E=-436.4885023445  phi=36.673  theta=73.552
C  -1.9012999867  1.1722800576 -0.0477862648
C  -0.4790594782  1.2100057437 -0.0529786242
C   0.1982194069  0.0278476513 -0.0411448847
C  -2.6173974689 -0.0300494695 -0.0151834549
H  -2.4402219725  2.1124857578 -0.0589710723
H   0.0582190366  2.1431891098 -0.0531956482
H  -3.6684265671 -0.0179109672 -0.0034058002
N   1.6735678067  0.0370371194  0.0209790366
O   2.2172737476 -1.0795549521  0.1286308621
O   2.2416851712  1.1345587705 -0.0391166817
C  -1.9243483895 -1.2293009436  0.0047997719
H  -2.4351036962 -2.1438254443  0.0414640312
C  -0.4618875305 -1.2726187469 -0.0335806253
H   0.0251958171 -2.0308030851  0.5751557301
14
Step 3  E=-436.4892019478  phi=36.508  theta=73.537
C  -1.9008266171  1.1719047364 -0.0477987933
C  -0.4808655531  1.2107383718 -0.0533092847
C   0.1974967168  0.0243166248 -0.0413966476
C  -2.6170890407 -0.0300069241 -0.0154800563
H  -2.4390139001  2.1115023887 -0.0587971304
H   0.0560072087  2.1396776487 -0.0541617990
H  -3.6491895191 -0.0160942397 -0.0028167683
N   1.6755621242  0.0380473205  0.0211109535
O   2.2166903710 -1.0777138999  0.1285281223
O   2.2401920322  1.1318524069 -0.0391335825
C  -1.9221725404 -1.2303285350  0.0045099080
H  -2.4231793403 -2.1242137560  0.0437294120
C  -0.4646109109 -1.2694038014 -0.0310210027
H   0.0275582773 -2.0367889405  0.5567659065
14
Step 4  E=-436.4890082795  phi=36.306  theta=73.518
C  -1.9002321005  1.1714235669 -0.0478176422
C  -0.4831512360  1.2115196962 -0.0537331609
C   0.1965521891  0.0199450684 -0.0417127364
C  -2.6162113539 -0.0299886796 -0.0158560789
H  -2.4376145326  2.1104243882 -0.0585696401
H   0.0536166101  2.1359957616 -0.0553940758
H  -3.6299284111 -0.0138704901 -0.0020450037
N   1.6780111989  0.0392740431  0.0212772860
O   2.2159752781 -1.0753915874  0.1284015766
O   2.2383187454  1.1284581375 -0.0391595129
C  -1.9192013529 -1.2310983345  0.0041376264
H  -2.4110464319 -2.1049078728  0.0467609497
C  -0.4680565372 -1.2653308908 -0.0277903319
H   0.0307282300 -2.0446434873  0.5335753630
14
Step 5  E=-436.4889029370  phi=36.074  theta=73.494
C  -1.8995262895  1.1708430532 -0.0478448788
C  -0.4858849807  1.2122508773 -0.0542489788
C   0.1953787251  0.0148525051 -0.0420873264
C  -2.6144794744 -0.0300167668 -0.0163078986
H  -2.4361193358  2.1093511828 -0.0582868235
H   0.0513010266  2.1326087820 -0.0568865426
H  -3.6139493987 -0.0113086787 -0.0010756068
N   1.6808312148  0.0406626684  0.0214755895
O   2.2151537062 -1.0726214208  0.1282552985
O   2.2361003051  1.1244411790 -0.0391977132
C  -1.9153388119 -1.2312743318  0.0036832280
H  -2.4006869091 -2.0895516022  0.0506520975
C  -0.4721730555 -1.2604554256 -0.0239265900
H   0.0347217734 -2.0543682895  0.5058346688
14
Step 6  E=-436.4905878403  phi=35.819  theta=73.465
C  -1.8987199042  1.1701762118 -0.0478830352
C  -0.4890236511  1.2128328947 -0.0548549078
C   0.1939719287  0.0091781247 -0.0425132107
C  -2.6116592942 -0.0301113828 -0.0168307041
H  -2.4346250266  2.1083674892 -0.0579475635
H   0.0492819137  2.1299236588 -0.0586330306
H  -3.6040519544 -0.0084879632  0.0001045928
N   1.6839225543  0.0421462815  0.0217028934
O   2.2142554206 -1.0694440396  0.1280941704
O   2.2335794579  1.1198822144 -0.0392522227
C  -1.9105310773 -1.2305750040  0.0031502863
H  -2.3937632822 -2.0812092233  0.0554819211
C  -0.4768874651 -1.2548544692 -0.0194700820
H   0.0394773446 -2.0658456202  0.4737760963
14
Step 7  E=-436.4950653044  phi=35.549  theta=73.431
C  -1.8978237914  1.1694441115 -0.0479350680
C  -0.4925105329  1.2131759692 -0.0555485074
C   0.1923318528  0.0030773031 -0.0429817919
C  -2.6076408638 -0.0302867356 -0.0174174447
H  -2.4332209327  2.1075310687 -0.0575519469
H   0.0477096205  2.1282204612 -0.0606270878
H  -3.6017100964 -0.0055084480  0.0014940052
N   1.6871716377  0.0436462126  0.0219557174
O   2.2133140722 -1.0659071841  0.1279238288
O   2.2308064044  1.1148774141 -0.0393279002
C  -1.9048137694 -1.2288619888  0.0025507684
H  -2.3910596006 -2.0813764913  0.0612534322
C  -0.4821004702 -1.2486298347 -0.0144624665
H   0.0448274435 -2.0787903030  0.4376030369
14
Step 8  E=-436.5015066495  phi=35.275  theta=73.393
C  -1.8968487983  1.1686763585 -0.0480042507
C  -0.4962742196  1.2132071494 -0.0563267394
C   0.1904644233 -0.0032821533 -0.0434830848
C  -2.6024830272 -0.0305478284 -0.0180576777
H  -2.4319819293  2.1068648810 -0.0571019393
H   0.0466345742  2.1276025212 -0.0628615167
H  -3.6065752347 -0.0025047378  0.0030616673
N   1.6904532741  0.0450732672  0.0222300861
O   2.2123664378 -1.0620655145  0.1277505978
O   2.2278381550  1.1095378908 -0.0394304217
C  -1.8983390504 -1.2261895340  0.0019100201
H  -2.3921629782 -2.0894309124  0.0678313671
C  -0.4876837278 -1.2419096598 -0.0089475393
H   0.0504829950 -2.0927227075  0.3974999661
14
Step 9  E=-436.5077748234  phi=35.006  theta=73.350
C  -1.8958065233  1.1679101992 -0.0480939837
C  -0.5002290255  1.2128748397 -0.0571860535
C   0.1883823814 -0.0097240445 -0.0440057256
C  -2.5964022393 -0.0308898218 -0.0187371121
H  -2.4309640352  2.1063547938 -0.0566021419
H   0.0459958294  2.1279772672 -0.0653275889
H  -3.6166113252  0.0003499054  0.0047402321
N   1.6936336091  0.0463299204  0.0225215234
O   2.2114515888 -1.0579803516  0.1275814047
O   2.2247373999  1.1039882761 -0.0395662330
C  -1.8913623808 -1.2227806235  0.0012679290
H  -2.3956184301 -2.1029122579  0.0749233845
C  -0.4934805807 -1.2348475866 -0.0029735476
H   0.0560356221 -2.1069730446  0.3536663499
14
Step 10  E=-436.5119922944  phi=34.751  theta=73.302
C  -1.8947106388  1.1671882964 -0.0482075523
C  -0.5042772593  1.2121497848 -0.0581225340
C   0.1861056912 -0.0160681235 -0.0445369952
C  -2.5897131829 -0.0313002846 -0.0194383077
H  -2.4302031053  2.1059532839 -0.0560604678
H   0.0456305041  2.1290725870 -0.0680141640
H  -3.6287735878  0.0028560897  0.0064317577
N   1.6965737028  0.0473137319  0.0228250061
O   2.2106100257 -1.0537192989  0.1274236785
O   2.2215707950  1.0983641373 -0.0397424371
C  -1.8841975822 -1.2189479844  0.0006750169
H  -2.3994470465 -2.1184231113  0.0821208611
C  -0.4993107798 -1.2276187110  0.0034036971
H   0.0609864688 -2.1207193404  0.3063687301
14
Step 11  E=-436.5135235588  phi=34.520  theta=73.249
C  -1.8935780982  1.1665555766 -0.0483478881
C  -0.5083132315  1.2110229383 -0.0591320541
C   0.1836614374 -0.0221347766 -0.0450628623
C  -2.5827555349 -0.0317628803 -0.0201422159
H  -2.4297163701  2.1055887334 -0.0554885955
H   0.0453021767  2.1304843103 -0.0709070211
H  -3.6398356022  0.0048121068  0.0080226647
N   1.6991337377  0.0479222340  0.0231348517
O   2.2098827475 -1.0493557526  0.1272852542
O   2.2184066265  1.0928080303 -0.0399665980
C  -1.8771671226 -1.2150096166  0.0001859435
H  -2.4017022148 -2.1325811969  0.0889715929
C  -0.5049787114 -1.2204123609  0.0101174756
H   0.0647998343 -2.1330585801  0.2559848089
14
Step 12  E=-436.5128492823  phi=34.322  theta=73.192
C  -1.8924296180  1.1660556893 -0.0485173845
C  -0.5122284607  1.2095013137 -0.0602103828
C   0.1810832230 -0.0277500031 -0.0455680779
C  -2.5758366565 -0.0322605391 -0.0208298633
H  -2.4295060773  2.1051788261 -0.0549021402
H   0.0447416099  2.1317430366 -0.0739887010
H  -3.6470260938  0.0060375092  0.0094000489
N   1.7011777855  0.0480593695  0.0234445444
O   2.2093102853 -1.0449682870  0.1271742728
O   2.2153118841  1.0874641199 -0.0402464583
C  -1.8705661656 -1.2112324167 -0.0001463271
H  -2.4008409894 -2.1426464645  0.0950466354
C  -0.5102841516 -1.2134226294  0.0170878122
H   0.0669617131 -2.1430966728  0.2030262576
14
Step 13  E=-436.5109123591  phi=34.164  theta=73.129
C  -1.8912892370  1.1657275443 -0.0487178037
C  -0.5159173493  1.2076031079 -0.0613532051
C   0.1784100695 -0.0327505919 -0.0460363904
C  -2.5691990014 -0.0327770671 -0.0214836647
H  -2.4295643377  2.1046457349 -0.0543205324
H   0.0436912526  2.1323861166 -0.0772390489
H  -3.6483802103  0.0063891947  0.0104641751
N   1.7025789942  0.0476431919  0.0237465451
O   2.2089317486 -1.0406398266  0.1270990649
O   2.2123488462  1.0824715152 -0.0405895848
C  -1.8646420279 -1.2078069529 -0.0002743487
H  -2.3958908508 -2.1467977259  0.0999844155
C  -0.5150341583 -1.2068374781  0.0242216349
H   0.0670351028 -2.1500366167  0.1481540224
14
Step 14  E=-436.5085280368  phi=34.053  theta=73.061
C  -1.8901831049  1.1656022685 -0.0489503006
C  -0.5192826793  1.2053531625 -0.0625560207
C   0.1756849144 -0.0369893411 -0.0464509159
C  -2.5630062128 -0.0332974155 -0.0220881601
H  -2.4298782686  2.1039304851 -0.0537666358
H   0.0419459611  2.1320226952 -0.0806364522
H  -3.6428793657  0.0057696515  0.0111363613
N   1.7032249238  0.0466140722  0.0240321399
O   2.2087838521 -1.0364565165  0.1270680293
O   2.2095714202  1.0779567963 -0.0410029807
C  -1.8595824582 -1.2048408528 -0.0001584310
H  -2.3864933594 -2.1442039492  0.1035152816
C  -0.5190547342 -1.2008277956  0.0314147893
H   0.0647132588 -2.1532590121  0.0921665889
14
Step 15  E=-436.5060379636  phi=33.993  theta=72.988
C  -1.8891378267  1.1657008834 -0.0492155563
C  -0.5222404685  1.2027794185 -0.0638139462
C   0.1729529329 -0.0403400743 -0.0467945924
C  -2.5573387246 -0.0338075325 -0.0226302227
H  -2.4304346186  2.1030042040 -0.0532661776
H   0.0393850702  2.1303843047 -0.0841595473
H  -3.6304880314  0.0041304659  0.0113638058
N   1.7030226288  0.0449422798  0.0242913524
O   2.2088999098 -1.0325062269  0.1270895047
O   2.2070216295  1.0740265510 -0.0414926987
C  -1.8555067299 -1.2023579813  0.0002317553
H  -2.3729038015 -2.1350290332  0.1054761581
C  -0.5222013819 -1.1955383201  0.0385550571
H   0.0598564652 -2.1523846897  0.0359498976
14
Step 16  E=-436.5032292612  phi=33.988  theta=72.909
C  -1.8881786916  1.1660329723 -0.0495139620
C  -0.5247238833  1.1999106391 -0.0651215177
C   0.1702599083 -0.0427021476 -0.0470505517
C  -2.5521929934 -0.0342944829 -0.0230989710
H  -2.4312231385  2.1018745651 -0.0528470833
H   0.0359934395  2.1273576718 -0.0877890139
H  -3.6121555915  0.0014737402  0.0111228756
N   1.7019030634  0.0426336237  0.0245129231
O   2.2093087965 -1.0288766095  0.1271716107
O   2.2047267043  1.0707609194 -0.0420634842
C  -1.8524573272 -1.2002969484  0.0009156967
H  -2.3559845143 -2.1204379668  0.1058218572
C  -0.5243678061 -1.1910811318  0.0455269118
H   0.0525087221 -2.1473119007 -0.0195694276
14
Step 17  E=-436.4995749283  phi=34.038  theta=72.825
C  -1.8873280298  1.1665965268 -0.0498457686
C  -0.5266859747  1.1967754564 -0.0664725572
C   0.1676507958 -0.0440042344 -0.0472022438
C  -2.5474836935 -0.0347466519 -0.0234855674
H  -2.4322381694  2.1005866693 -0.0525388532
H   0.0318705520  2.1229990875 -0.0915091115
H  -3.5897904658 -0.0021482699  0.0104208377
N   1.6998244969  0.0397320010  0.0246843520
O   2.2100338479 -1.0256526147  0.1273220359
O   2.2026971665  1.0682090810 -0.0427184799
C  -1.8503942278 -1.1985104143  0.0019009933
H  -2.3371838838 -2.1025933133  0.1046315067
C  -0.5254918360 -1.1875313419  0.0522168765
H   0.0429043603 -2.1382375443 -0.0734692816
14
Step 18  E=-436.4947975833  phi=34.143  theta=72.735
C  -1.8866037942  1.1673790119 -0.0502111496
C  -0.5281010646  1.1934027582 -0.0678601209
C   0.1651685058 -0.0442073072 -0.0472333010
C  -2.5430535592 -0.0351531362 -0.0237828869
H  -2.4334780554  2.0992183873 -0.0523720433
H   0.0272270810  2.1175303380 -0.0953087633
H  -3.5661511845 -0.0066375193  0.0092939108
N   1.6967747082  0.0363181934  0.0247920661
O   2.2110916284 -1.0229134795  0.1275477508
O   2.2009261788  1.0663873066 -0.0434590422
C  -1.8491974608 -1.1967742225  0.0031838629
H  -2.3184494558 -2.0845498795  0.1020986652
C  -0.5255575574 -1.1849247577  0.0585178751
H   0.0314609610 -2.1256594997 -0.1248985126
14
Step 19  E=-436.4895210635  phi=34.299  theta=72.639
C  -1.8860183504  1.1683595381 -0.0506101575
C  -0.5289646751  1.1898234622 -0.0692765660
C   0.1628529434 -0.0433067730 -0.0471272992
C  -2.5386997299 -0.0355013872 -0.0239848648
H  -2.4349423148  2.0978710855 -0.0523777856
H   0.0223686680  2.1113161409 -0.0991820965
H  -3.5445504884 -0.0118617280  0.0077978941
N   1.6927718977  0.0325048466  0.0248218140
O   2.2124905633 -1.0207293021  0.1278546613
O   2.1993902344  1.0652797900 -0.0442847166
C  -1.8486853198 -1.1948207562  0.0047527585
H  -2.3019939990 -2.0698880959  0.0984868037
C  -0.5245930787 -1.1832575107  0.0643334559
H   0.0187574669 -2.1103534788 -0.1731335035
14
Step 20  E=-436.4853907548  phi=34.503  theta=72.537
C  -1.8855774155  1.1695118733 -0.0510426065
C  -0.5292919988  1.1860736847 -0.0707137574
C   0.1607403936 -0.0413336757 -0.0468675720
C  -2.5342244048 -0.0357729838 -0.0240852880
H  -2.4366269001  2.0966573141 -0.0525873021
H   0.0176672251  2.1048230271 -0.1031283015
H  -3.5282792138 -0.0176730603  0.0059886991
N   1.6878644275  0.0284281354  0.0247593333
O   2.2142295822 -1.0191573664  0.1282472333
O   2.1980510557  1.0648420344 -0.0451933872
C  -1.8486522173 -1.1924075436  0.0065958902
H  -2.2898614022 -2.0619544801  0.0940400200
C  -0.5226644458 -1.1824877952  0.0695820232
H   0.0055043488 -2.0933291157 -0.2176102734
14
Step 21  E=-436.4840861663  phi=34.748  theta=72.429
C  -1.8852792249  1.1708078548 -0.0515079540
C  -0.5291150398  1.1821991379 -0.0721633940
C   0.1588633268 -0.0383548082 -0.0464371837
C  -2.5295054854 -0.0359390041 -0.0240761799
H  -2.4385183382  2.0956872876 -0.0530314385
H   0.0135213139  2.0985611355 -0.1071506121
H  -3.5197946432 -0.0239258451  0.0038965613
N   1.6821295537  0.0242372523  0.0245912220
O   2.2162968940 -1.0182385817  0.1287281248
O   2.1968584096  1.0650061597 -0.0461815764
C  -1.8489181012 -1.1894102249  0.0087103015
H  -2.2833766533 -2.0628213127  0.0888759144
C  -0.5198672374 -1.1825404376  0.0741993996
H  -0.0074999136 -2.0757610337 -0.2579513025
14
Step 22  E=-436.4858615209  phi=35.027  theta=72.315
C  -1.8851142578  1.1722205981 -0.0520052540
C  -0.5284787530  1.1782602125 -0.0736174310
C   0.1572505746 -0.0344715726 -0.0458191523
C  -2.5245613789 -0.0359578134 -0.0239466991
H  -2.4405880258  2.0950560231 -0.0537401950
H   0.0103094279  2.0930140739 -0.1112542839
H  -3.5199643893 -0.0304797873  0.0015073290
N   1.6756712899  0.0200832610  0.0243058901
O   2.2186689296 -1.0179945979  0.1292978486
O   2.1957534518  1.0656872558 -0.0472448324
C  -1.8493662077 -1.1858956358  0.0111064593
H  -2.2827476131 -2.0724622498  0.0829312303
C  -0.5163175367 -1.1833149581  0.0781391533
H  -0.0194318460 -2.0588897749 -0.2939735007
14
Step 23  E=-436.4892668503  phi=35.332  theta=72.196
C  -1.8850659561  1.1737268406 -0.0525332156
C  -0.5274367386  1.1743367311 -0.0750685613
C   0.1559277267 -0.0298175236 -0.0449969619
C  -2.5195732046 -0.0357774863 -0.0236836554
H  -2.4427879958  2.0948327640 -0.0547421936
H   0.0083427601  2.0885667618 -0.1154437154
H  -3.5277837002 -0.0371835722 -0.0012343241
N   1.6686175385  0.0161087594  0.0238944555
O   2.2213097949 -1.0184259518  0.1299545354
O   2.1946722004  1.0667899192 -0.0483781459
C  -1.8499470375 -1.1821250484  0.0138038148
H  -2.2870811208 -2.0887095388  0.0760133961
C  -0.5121432551 -1.1846966632  0.0813709545
H  -0.0295148665 -2.0439024386 -0.3256538316
14
Step 24  E=-436.4924030511  phi=35.654  theta=72.069
C  -1.8851126056  1.1753080059 -0.0530903281
C  -0.5260471734  1.1705310138 -0.0765106889
C   0.1549175267 -0.0245545158 -0.0439552761
C  -2.5148482006 -0.0353424728 -0.0232736691
H  -2.4450491582  2.0950542359 -0.0560640896
H   0.0078260691  2.0854452240 -0.1197192287
H  -3.5407500138 -0.0438522312 -0.0043992266
N   1.6611165675  0.0124395101  0.0233514526
O   2.2241715175 -1.0195115427  0.1306938499
O   2.1935488167  1.0682142836 -0.0495763371
C  -1.8506509965 -1.1784835255  0.0168201779
H  -2.2947893894 -2.1080305555  0.0679240291
C  -0.5074763546 -1.1865691094  0.0838767378
H  -0.0370880724 -2.0318091220 -0.3530634424
14
Step 25  E=-436.4942325323  phi=35.985  theta=71.937
C  -1.8852300027  1.1769500153 -0.0536749778
C  -0.5243696084  1.1669679118 -0.0779393172
C   0.1542400535 -0.0188674197 -0.0426806997
C  -2.5107454864 -0.0346019498 -0.0227056942
H  -2.4472824142  2.0957229228 -0.0577300387
H   0.0088348932  2.0836824870 -0.1240742954
H  -3.5556533491 -0.0502580967 -0.0080418714
N   1.6533328199  0.0091788071  0.0226752535
O   2.2271951077 -1.0212096606  0.1315090615
O   2.1923184948  1.0698610878 -0.0508343749
C  -1.8514735251 -1.1753815501  0.0201622470
H  -2.3041043701 -2.1265891150  0.0585675839
C  -0.5024464192 -1.1888257599  0.0856451851
H  -0.0416647813 -2.0233347732 -0.3762913237
14
Step 26  E=-436.4948410794  phi=36.316  theta=71.799
C  -1.8853941817  1.1786422032 -0.0542855053
C  -0.5224629760  1.1637909527 -0.0793517692
C   0.1539125173 -0.0129574870 -0.0411624534
C  -2.5076013571 -0.0335173812 -0.0219725439
H  -2.4493825466  2.0968106729 -0.0597613689
H   0.0113139738  2.0831196569 -0.1284940093
H  -3.5693630789 -0.0561421614 -0.0121795811
N   1.6454420932  0.0064047173  0.0218681684
O   2.2303124323 -1.0234604653  0.1323912761
O   2.1909198719  1.0716356212 -0.0521476115
C  -1.8523925820 -1.1731759361  0.0238215099
H  -2.3134552829 -2.1410614525  0.0479951458
C  -0.4971759166 -1.1913786189  0.0866663530
H  -0.0429695900 -2.0188500356 -0.3953738843
14
Step 27  E=-436.4949153247  phi=36.637  theta=71.655
C  -1.8855835461  1.1803758033 -0.0549201989
C  -0.5203847090  1.1611545838 -0.0807471769
C   0.1539485118 -0.0070345547 -0.0393928782
C  -2.5056773668 -0.0320681478 -0.0210710067
H  -2.4512344300  2.0982668059 -0.0621765414
H   0.0150962907  2.0834420972 -0.1329553109
H  -3.5793570067 -0.0612380879 -0.0167878587
N   1.6376262164  0.0041698013  0.0209362504
O   2.2334488194 -1.0261895620  0.1333298094
O   2.1892969547  1.0734505985 -0.0535119327
C  -1.8533618775 -1.1721252454  0.0277747948
H  -2.3216547066 -2.1490526890  0.0363920298
C  -0.4917774117 -1.1941623093  0.0869283744
H  -0.0409442177 -2.0183578059 -0.4102486329
14
Step 28  E=-436.4951170871  phi=36.940  theta=71.506
C  -1.8857801484  1.1821424268 -0.0555772489
C  -0.5181905046  1.1592134061 -0.0821262154
C   0.1543566774 -0.0013083864 -0.0373677471
C  -2.5051335051 -0.0302549803 -0.0200009406
H  -2.4527209093  2.1000289821 -0.0649913775
H   0.0199370683  2.0842415300 -0.1374289814
H  -3.5839785957 -0.0652983995 -0.0218074121
N   1.6300674582  0.0025026256  0.0198888609
O   2.2365261381 -1.0293121976  0.1343126558
O   2.1874005937  1.0752281183 -0.0549238393
C  -1.8543133410 -1.1723713169  0.0319870382
H  -2.3279578006 -2.1492299261  0.0240385662
C  -0.4863527341 -1.1971334361  0.0864172427
H  -0.0357230867 -2.0215356274 -0.4207460673
14
Step 29  E=-436.4956944158  phi=37.218  theta=71.354
C  -1.8859702285  1.1839328425 -0.0562546950
C  -0.5159341473  1.1581098919 -0.0834906088
C   0.1551388692  0.0040204096 -0.0350864057
C  -2.5060182018 -0.0281010613 -0.0187639116
H  -2.4537315096  2.1020346649 -0.0682194389
H   0.0255545282  2.0850896635 -0.1418829720
H  -3.5825244059 -0.0681173592 -0.0271566923
N   1.6229429353  0.0014102936  0.0187380818
O   2.2394660273 -1.0327375766  0.1353269906
O   2.1851895639  1.0769009056 -0.0563804749
C  -1.8551615947 -1.1739338548  0.0364146997
H  -2.3320730382 -2.1413356728  0.0112639765
C  -0.4809936165 -1.2002664530  0.0851194409
H  -0.0275887938 -2.0278183192 -0.4266190746
14
Step 30  E=-436.4963693968  phi=37.463  theta=71.198
C  -1.8861442592  1.1857362655 -0.0569503884
C  -0.5136669520  1.1579622294 -0.0848424659
C   0.1562880783  0.0087693119 -0.0325517997
C  -2.5082667142 -0.0256505813 -0.0173617508
H  -2.4541710616  2.1042311666 -0.0718724238
H   0.0316696011  2.0856090546 -0.1462863859
H  -3.5752606764 -0.0695497559 -0.0327464668
N   1.6164193035  0.0008813204  0.0174980653
O   2.2421929634 -1.0363728727  0.1363596549
O   2.1826313250  1.0784130365 -0.0578796212
C  -1.8558062924 -1.1767099636  0.0410094821
H  -2.3341714893 -2.1261824030 -0.0016010346
C  -0.4757830095 -1.2035478823  0.0830262640
H  -0.0169203387 -2.0364980359 -0.4275959666
14
Step 31  E=-436.4964894484  phi=37.670  theta=71.042
C  -1.8862966849  1.1875402904 -0.0576619868
C  -0.5114366831  1.1588537334 -0.0861835260
C   0.1577864545  0.0127820049 -0.0297704548
C  -2.5117038176 -0.0229647066 -0.0157951771
H  -2.4539673115  2.1065826929 -0.0759604445
H   0.0380391069  2.0855307415 -0.1506134347
H  -3.5634142537 -0.0695261342 -0.0384955581
N   1.6106479506  0.0008883467  0.0161844115
O   2.2446369571 -1.0401266462  0.1373975869
O   2.1797025462  1.0797203280 -0.0594196757
C  -1.8561317022 -1.1804773197  0.0457225939
H  -2.3349040824 -2.1056451854 -0.0142746026
C  -0.4707962755 -1.2069704994  0.0801383956
H  -0.0041446625 -2.0468207864 -0.4234391100
14
Step 32  E=-436.4954627031  phi=37.836  theta=70.887
C  -1.8864253777  1.1893315471 -0.0583869975
C  -0.5092861082  1.1608249266 -0.0875144061
C   0.1596038333  0.0159350235 -0.0267524674
C  -2.5160521235 -0.0201154007 -0.0140625400
H  -2.4530767307  2.1090735014 -0.0804920861
H   0.0444795264  2.0847329979 -0.1548468193
H  -3.5491192153 -0.0680631206 -0.0443473150
N   1.6057608318  0.0013904066  0.0148136331
O   2.2467357436 -1.0439115290  0.1384281787
O   2.1763894538  1.0807905389 -0.0609996285
C  -1.8560065046 -1.1849063287  0.0505094774
H  -2.3353972144 -2.0825871779 -0.0265758729
C  -0.4661017029 -1.2105283653  0.0764696198
H   0.0103023734 -2.0580660266 -0.4139949944
14
Step 33  E=-436.4933942172  phi=37.957  theta=70.734
C  -1.8865306739  1.1910970570 -0.0591228892
C  -0.5072514815  1.1638690422 -0.0888339406
C   0.1616971615  0.0181423592 -0.0235115517
C  -2.5209524139 -0.0171782825 -0.0121588933
H  -2.4514879496  2.1117069880 -0.0854741757
H   0.0508804202  2.0832590887 -0.1589801230
H  -3.5352407798 -0.0652636539 -0.0502837432
N   1.6018669973  0.0023346559  0.0134027389
O   2.2484363795 -1.0476461558  0.1394395497
O   2.1726880639  1.0816034750 -0.0626190439
C  -1.8552905595 -1.1895922729  0.0553336384
H  -2.3371544128 -2.0605808910 -0.0384637167
C  -0.4617600237 -1.2142128811  0.0720491040
H   0.0260035683 -2.0696039982 -0.3992282815
14
Step 34  E=-436.4914844670  phi=38.034  theta=70.585
C  -1.8866138415  1.1928261287 -0.0598672885
C  -0.5053612291  1.1679314040 -0.0901387014
C   0.1640111420  0.0193576642 -0.0200651697
C  -2.5260048331 -0.0142263848 -0.0100760345
H  -2.4492224640  2.1145011273 -0.0909112251
H   0.0572073136  2.0813136146 -0.1630188705
H  -3.5249679545 -0.0612991693 -0.0563286942
N   1.5990498196  0.0036576085  0.0119689470
O   2.2496962669 -1.0512564163  0.1404207383
O   2.1686043602  1.0821510369 -0.0642780534
C  -1.8538572432 -1.1941183439  0.0601664014
H  -2.3417699005 -2.0432825410 -0.0500253579
C  -0.4578227851 -1.2180096791  0.0669221909
H   0.0425775081 -2.0809309766 -0.3792380009
14
Step 35  E=-436.4915145898  phi=38.067  theta=70.443
C  -1.8866750702  1.1945124542 -0.0606182548
C  -0.5036349523  1.1729128027 -0.0914227715
C   0.1664802304  0.0195739695 -0.0164347390
C  -2.5308345156 -0.0113267132 -0.0078045466
H  -2.4463327007  2.1174812725 -0.0968045114
H   0.0634937423  2.0792378825 -0.1669799752
H  -3.5211255991 -0.0563700813 -0.0625271568
N   1.5973649026  0.0052859972  0.0105295248
O   2.2504837152 -1.0546761516  0.1413618229
O   2.1641544242  1.0824372351 -0.0659773616
C  -1.8516340150 -1.1981454275  0.0649792670
H  -2.3504272282 -2.0334861338 -0.0613754393
C  -0.4543297025 -1.2218962868  0.0611499048
H   0.0596875300 -2.0916846542 -0.3542569835
14
Step 36  E=-436.4944521195  phi=38.061  theta=70.308
C  -1.8867115015  1.1961558630 -0.0613745824
C  -0.5020827430  1.1786765984 -0.0926778214
C   0.1690317851  0.0188211388 -0.0126458639
C  -2.5351682099 -0.0085401310 -0.0053384007
H  -2.4428978034  2.1206713982 -0.1031507723
H   0.0698218953  2.0774654873 -0.1708893945
H  -3.5253521861 -0.0506560402 -0.0688942540
N   1.5968386552  0.0071374280  0.0091017382
O   2.2507781343 -1.0578474577  0.1422539887
O   2.1593644506  1.0824781725 -0.0677182691
C  -1.8486468730 -1.2014950165  0.0697301875
H  -2.3633524567 -2.0322285196 -0.0724803803
C  -0.4513056912 -1.2258409668  0.0548073798
H   0.0770439509 -2.1016414991 -0.3246368419
14
Step 37  E=-436.4995165536  phi=38.020  theta=70.182
C  -1.8867160898  1.1977631235 -0.0621360465
C  -0.5007046797  1.1850588249 -0.0938934989
C   0.1715899373  0.0171614732 -0.0087284828
C  -2.5388890129 -0.0059228241 -0.0026807807
H  -2.4390178957  2.1240851340 -0.1099405786
H   0.0762926320  2.0764613656 -0.1747780301
H  -3.5375172207 -0.0442830956 -0.0753506549
N   1.5974675504  0.0091210079  0.0077028875
O   2.2505699682 -1.0607207309  0.1430895839
O   2.1542705886  1.0823019572 -0.0695027164
C  -1.8450398903 -1.2041767774  0.0743525558
H  -2.3795589554 -2.0385003756 -0.0830124910
C  -0.4487586854 -1.2298034798  0.0479813611
H   0.0943977820 -2.1106974422 -0.2908229157
14
Step 38  E=-436.5048078403  phi=37.951  theta=70.067
C  -1.8866778685  1.1993473907 -0.0629035209
C  -0.4994903718  1.1918801532 -0.0950580945
C   0.1740796441  0.0146840105 -0.0047168146
C  -2.5420383327 -0.0035266992  0.0001520922
H  -2.4348075823  2.1277178710 -0.1171566116
H   0.0829881360  2.0766509000 -0.1786761864
H  -3.5557333917 -0.0373288931 -0.0816827358
N   1.5992181195  0.0111382060  0.0063503797
O   2.2498603855 -1.0632546107  0.1438621463
O   2.1489186094  1.0819484038 -0.0713333389
C  -1.8410525801 -1.2063438805  0.0787562546
H  -2.3970840621 -2.0497639385 -0.0923464393
C  -0.4466791838 -1.2337381786  0.0407670084
H   0.1115231172 -2.1188343208 -0.2533263726
14
Step 39  E=-436.5087220647  phi=37.860  theta=69.962
C  -1.8865835079  1.2009263771 -0.0636789555
C  -0.4984186337  1.1989582130 -0.0961593938
C   0.1764304113  0.0114981343 -0.0006490398
C  -2.5447656371 -0.0013977820  0.0031316009
H  -2.4303893966  2.1315413000 -0.1247721955
H   0.0899330429  2.0783500225 -0.1826072995
H  -3.5769577859 -0.0298582541 -0.0875555470
N   1.6020277909  0.0130842047  0.0050617989
O   2.2486608445 -1.0654159218  0.1445664282
O   2.1433633503  1.0814683658 -0.0732135181
C  -1.8369689234 -1.2082104342  0.0828403719
H  -2.4135540360 -2.0628914655 -0.0996962678
C  -0.4450413269 -1.2375988601  0.0332645925
H   0.1281940778 -2.1260755115 -0.2126986021
14
Step 40  E=-436.5107254637  phi=37.755  theta=69.868
C  -1.8864193965  1.2025197281 -0.0644652488
C  -0.4974576894  1.2061186143 -0.0971855865
C   0.1785793506  0.0077270510  0.0034332761
C  -2.5472574548  0.0004261812  0.0062212231
H  -2.4258877599  2.1355014132 -0.1327503904
H   0.0970620695  2.0817100036 -0.1865820529
H  -3.5978208481 -0.0219614253 -0.0925696831
N   1.6058066268  0.0148499665  0.0038549063
O   2.2469926752 -1.0671796040  0.1451984582
O   2.1376678068  1.0809225382 -0.0751474082
C  -1.8330666672 -1.2099785989  0.0865089261
H  -2.4267424197 -2.0749856915 -0.1042925345
C  -0.4438045958 -1.2413439903  0.0255768777
H   0.1441654105 -2.1324352194 -0.1695096713
14
Step 41  E=-436.5111614972  phi=37.645  theta=69.787
C  -1.8861733453  1.2041461987 -0.0652660535
C  -0.4965663959  1.2132031663 -0.0981260799
C   0.1804733578  0.0035016204  0.0074859775
C  -2.5496782276  0.0019174142  0.0093821910
H  -2.4214238248  2.1395202485 -0.1410437828
H   0.1042030548  2.0866891429 -0.1905941642
H  -3.6153114983 -0.0137749574 -0.0963296493
N   1.6104399931  0.0163252973  0.0027474856
O   2.2448865394 -1.0685288372  0.1457555811
O   2.1319018047  1.0803795369 -0.0771398938
C  -1.8295836308 -1.2117967311  0.0896823724
H  -2.4349264684 -2.0838439270 -0.1055142592
C  -0.4429161193 -1.2449409254  0.0178075268
H   0.1591566910 -2.1378729925 -0.1243374029
14
Step 42  E=-436.5106586040  phi=37.536  theta=69.717
C  -1.8858354172  1.2058210920 -0.0660855461
C  -0.4956968943  1.2200744008 -0.0989720924
C   0.1820704443 -0.0010451394  0.0114632761
C  -2.5521357856  0.0030585125  0.0125781197
H  -2.4171115438  2.1435009639 -0.1495949505
H   0.1110812477  2.0930579947 -0.1946188918
H  -3.6271774076 -0.0054834843 -0.0984982526
N   1.6157921397  0.0174029373  0.0017569836
O   2.2423818619 -1.0694552373  0.1462365258
O   2.1261401288  1.0799131898 -0.0791964525
C  -1.8267007039 -1.2137434496  0.0923034111
H  -2.4370449998 -2.0881271068 -0.1029565823
C  -0.4423140854 -1.2483682754  0.0100603795
H   0.1728370681 -2.1422708686 -0.0777726109
14
Step 43  E=-436.5096438195  phi=37.436  theta=69.660
C  -1.8853978919  1.2075542088 -0.0669281732
C  -0.4947987100  1.2266164270 -0.0997169714
C   0.1833402382 -0.0057825827  0.0153188028
C  -2.5546672051  0.0038416980  0.0157779324
H  -2.4130550776  2.1473351317 -0.1583374677
H   0.1173447117  2.1004362844 -0.1986147037
H  -3.6320930502  0.0026902255 -0.0988302366
N   1.6217106208  0.0179836802  0.0008999502
O   2.2395260567 -1.0699593043  0.1466414585
O   2.1204599937  1.0795990774 -0.0813229121