14
Step 0  E=-436.5191460973  phi=67.166  theta=61.393
C  -1.8805735558  1.1909353788 -0.1057620070
C  -0.4794448112  1.2078855240 -0.0933046553
C   0.1966856873  0.0145522850  0.0023644941
C  -2.5643622186 -0.0219218521 -0.0468116327
H  -2.4314715874  2.0995957896 -0.2139543134
H   0.0525051135  2.1200660245 -0.1416061061
H  -3.6670539160 -0.0422544693 -0.0407245695
N   1.6491113961  0.0164123856  0.0161103880
O   2.2131490141 -1.0523854597  0.1056408893
O   2.2119032739  1.0849211810 -0.0346864168
C  -1.8805018043 -1.1897016259  0.0577432698
H  -2.4211403998 -2.1407613010  0.0988728315
C  -0.4821445689 -1.2378739638  0.0660285245
H   0.0885207075 -2.1163924214  0.1622033870
14
Step 1  E=-436.5050870628  phi=67.685  theta=61.032
C  -1.8750376299  1.1920755321 -0.0918889883
C  -0.4607610890  1.2079819709 -0.0910523439
C   0.2159718081  0.0272830868  0.0015267045
C  -2.5587743005 -0.0245824008 -0.0474676940
H  -2.4301426257  2.0785902728 -0.2312991947
H   0.0439413494  2.1089599841 -0.1323643070
H  -3.6754049458 -0.0566995068 -0.0162379887
N   1.6451805058  0.0208941524  0.0027060912
O   2.2048181810 -1.0477516853  0.0958836016
O   2.2155121284  1.0798478078 -0.0332365471
C  -1.8894808885 -1.1630491428  0.0630815537
H  -2.4312452267 -2.1172020778  0.0880421852
C  -0.4807756671 -1.2599040607  0.0539603317
H   0.0898299517 -2.1038241065  0.1696407394
14
Step 2  E=-436.4847458840  phi=68.174  theta=60.689
C  -1.8691896303  1.1928356548 -0.0781631615
C  -0.4427629217  1.2079176828 -0.0888026124
C   0.2345992036  0.0390177101  0.0006296515
C  -2.5538671220 -0.0264306330 -0.0480020037
H  -2.4301440637  2.0608097563 -0.2484393727
H   0.0379981329  2.1013130219 -0.1236599577
H  -3.6783261592 -0.0698489714  0.0074971657
N   1.6415330996  0.0255911222 -0.0105983175
O   2.1965690512 -1.0432342896  0.0861487880
O   2.2190763107  1.0747163880 -0.0318806925
C  -1.8978109650 -1.1380029828  0.0684422611
H  -2.4379918812 -2.0868456906  0.0776524576
C  -0.4797545987 -1.2804106032  0.0419872973
H   0.0933366744 -2.0966420031  0.1771059899
14
Step 3  E=-436.4624539822  phi=68.620  theta=60.368
C  -1.8629201771  1.1931053324 -0.0646400513
C  -0.4257847626  1.2075892109 -0.0865304397
C   0.2523059876  0.0494217119 -0.0003581536
C  -2.5499195632 -0.0269582192 -0.0483796058
H  -2.4318285115  2.0475369912 -0.2653000830
H   0.0363120676  2.0999085503 -0.1156789973
H  -3.6750224144 -0.0812503761  0.0300385081
N   1.6382731269  0.0304474577 -0.0237479485
O   2.1884306130 -1.0389060116  0.0764223457
O   2.2226514370  1.0696486225 -0.0306367589
C  -1.9050411651 -1.1152010275  0.0737968443
H  -2.4419456213 -2.0504781260  0.0681130143
C  -0.4792535300 -1.2987703034  0.0301295544
H   0.1005455947 -2.0979322614  0.1849128667
14
Step 4  E=-436.4417409576  phi=69.008  theta=60.075
C  -1.8561773588  1.1928553024 -0.0513823729
C  -0.4100782477  1.2069810014 -0.0842157106
C   0.2688442075  0.0582383281 -0.0014691838
C  -2.5471575521 -0.0256694321 -0.0485732623
H  -2.4350906429  2.0392896658 -0.2817292996
H   0.0398037363  2.1063671043 -0.1085357783
H  -3.6653988790 -0.0904652934  0.0509672465
N   1.6355139404  0.0353943436 -0.0366915313
O   2.1804334348 -1.0348363744  0.0666893653
O   2.2262964737  1.0647681154 -0.0295207184
C  -1.9107142793 -1.0951891131  0.0791242276
H  -2.4440803753 -2.0098093561  0.0598090160
C  -0.4793628529 -1.3145858682  0.0184206654
H   0.1119652698 -2.1090049566  0.1932571078
14
Step 5  E=-436.4238022073  phi=69.331  theta=59.815
C  -1.8489715553  1.1921416130 -0.0384659478
C  -0.3957891339  1.2062081378 -0.0818430510
C   0.2839764134  0.0652808940 -0.0027349262
C  -2.5457244086 -0.0221317592 -0.0485606510
H  -2.4393192057  2.0357916179 -0.2974119716
H   0.0484478372  2.1205568783 -0.1022752918
H  -3.6500583168 -0.0970855940  0.0699279332
N   1.6333730527  0.0403528850 -0.0493822975
O   2.1726102710 -1.0310912601  0.0569343324
O   2.2300721623  1.0601969519 -0.0285464036
C  -1.9143992613 -1.0783648267  0.0844081017
H  -2.4457614849 -1.9674473334  0.0530619441
C  -0.4800473303 -1.3277144526  0.0069244225
H   0.1267000750 -2.1289803187  0.2019824362
14
Step 6  E=-436.4082021200  phi=69.580  theta=59.596
C  -1.8413656999  1.1910908027 -0.0259802371
C  -0.3829624844  1.2055071773 -0.0793998996
C   0.2974757573  0.0704267636 -0.0041846521
C  -2.5456479634 -0.0160289513 -0.0483201124
H  -2.4435000666  2.0361595174 -0.3118455866
H   0.0613638745  2.1406206048 -0.0968965962
H  -3.6303032420 -0.1007537261  0.0866669190
N   1.6319654108  0.0452380434 -0.0617785555
O   2.1649964336 -1.0277326177  0.0471413912
O   2.2340390443  1.0560521260 -0.0277254291
C  -1.9157252767 -1.0649324044  0.0896320219
H  -2.4486808300 -1.9267370533  0.0480972511
C  -0.4811626868 -1.3382218581 -0.0042622333
H   0.1426781819 -2.1552360496  0.2105183670
14
Step 7  E=-436.3947933424  phi=69.752  theta=59.425
C  -1.8334560831  1.1898746196 -0.0140231843
C  -0.3715698290  1.2051774175 -0.0768742898
C   0.3091299355  0.0736127972 -0.0058450553
C  -2.5468138044 -0.0072041912 -0.0478268427
H  -2.4464193221  2.0392042944 -0.3243876568
H   0.0771599313  2.1635959308 -0.0923794934
H  -3.6081261587 -0.1011877432  0.1010692823
N   1.6313955562  0.0499631730 -0.0738438570
O   2.1576298074 -1.0248181741  0.0372946355
O   2.2382551688  1.0524419979 -0.0270672250
C  -1.9144194678 -1.0548922808  0.0947731121
H  -2.4546588108 -1.8913281538  0.0450331132
C  -0.4825135590 -1.3462934420 -0.0150222921
H   0.1573205472 -2.1843582986  0.2180188544
14
Step 8  E=-436.3846094687  phi=69.844  theta=59.310
C  -1.8253513669  1.1886845480 -0.0026929468
C  -0.3615406946  1.2055066716 -0.0742535858
C   0.3187478362  0.0748318098 -0.0077405740
C  -2.5489580886  0.0043195920 -0.0470512334
H  -2.4468782535  2.0437209216 -0.3343440479
H   0.0943205458  2.1862311089 -0.0886994652
H  -3.5861345590 -0.0982072582  0.1131863656
N   1.6317490791  0.0544448381 -0.0855467207
O   2.1505504603 -1.0224012166  0.0273784349
O   2.2427736432  1.0494628629 -0.0265791840
C  -1.9103499420 -1.0480838170  0.0997952843
H  -2.4652388036 -1.8644082137  0.0439096340
C  -0.4839108408 -1.3521526858 -0.0252372940
H   0.1681966458 -2.2130056732  0.2235756833
14
Step 9  E=-436.3791296001  phi=69.857  theta=59.255
C  -1.8171556541  1.1877132012  0.0079202463
C  -0.3527851824  1.2067152918 -0.0715244522
C   0.3261683672  0.0741287402 -0.0098941820
C  -2.5516908024  0.0183471404 -0.0459594096
H  -2.4438564607  2.0486919198 -0.3410577514
H   0.1114820221  2.2056188329 -0.0858298331
H  -3.5673263309 -0.0917489686  0.1232348526
N   1.6330840963  0.0586073228 -0.0968599365
O   2.1438004318 -1.0205301473  0.0173777706
O   2.2476402062  1.0471957643 -0.0262669096
C  -1.9035669360 -1.0442684077  0.1046435955
H  -2.4811278363 -1.8477993986  0.0447591615
C  -0.4852036901 -1.3560123020 -0.0348013912
H   0.1734035914 -2.2383966371  0.2263828479
14
Step 10  E=-436.3790938290  phi=69.796  theta=59.267
C  -1.8089569531  1.1871433947  0.0177403536
C  -0.3452060220  1.2089283628 -0.0686735784
C   0.3312701278  0.0715959033 -0.0123283457
C  -2.5545537252  0.0345405586 -0.0445136497
H  -2.4366058566  2.0533947361 -0.3439752704
H   0.1275671540  2.2195308701 -0.0837378329
H  -3.5546412794 -0.0818537265  0.1315424286
N   1.6354238834  0.0623865538 -0.1077595494
O   2.1374232070 -1.0192480501  0.0072785624
O   2.2528909913  1.0457036251 -0.0261345561
C  -1.8943225002 -1.0432078774  0.1092431690
H  -2.5017525689 -1.8414035831  0.0476756711
C  -0.4862870786 -1.3580545562 -0.0436283124
H   0.1716828244 -2.2584695778  0.2258173919
14
Step 11  E=-436.3840937518  phi=69.666  theta=59.347
C  -1.8008199041  1.1871427410  0.0267096650
C  -0.3387045445  1.2121694087 -0.0656886509
C   0.3339803461  0.0673672499 -0.0150658007
C  -2.5571044459  0.0524596211 -0.0426702391
H  -2.4246899539  2.0574398430 -0.3426875509
H   0.1418269241  2.2265280771 -0.0823805542
H  -3.5503149590 -0.0686128613  0.1384313829
N   1.6387519720  0.0657330096 -0.1182237125
O   2.1314631233 -1.0185921883 -0.0029320173
O   2.2585506379  1.0450288321 -0.0261852455
C  -1.8830473904 -1.0446945303  0.1135059214
H  -2.5252495959 -1.8433836898  0.0528245490
C  -0.4870958789 -1.3584273629 -0.0516535580
H   0.1624002531 -2.2718757625  0.2214615945
14
Step 12  E=-436.3928693782  phi=69.475  theta=59.495
C  -1.7927812766  1.1878609635  0.0347913442
C  -0.3331852039  1.2163650439 -0.0625592767
C   0.3342814233  0.0616119469 -0.0181298662
C  -2.5590011141  0.0716021295 -0.0403755701
H  -2.4079916316  2.0607730885 -0.3369522616
H   0.1538450446  2.2259641137 -0.0817035783
H  -3.5552434336 -0.0520897214  0.1440772167
N   1.6430107995  0.0686133194 -0.1282316402
O   2.1259647207 -1.0185933307 -0.0132652749
O   2.2646308870  1.0451914165 -0.0264215288
C  -1.8702878933 -1.0485325142  0.1173435401
H  -2.5489255146 -1.8509384704  0.0603837993
C  -0.4875955462 -1.3572450628 -0.0588348489
H   0.1454930867 -2.2779335953  0.2131012271
14
Step 13  E=-436.4036562310  phi=69.232  theta=59.708
C  -1.7848474808  1.1894275141  0.0419708760
C  -0.3285612500  1.2213528423 -0.0592776888
C   0.3322137760  0.0545276519 -0.0215441317
C  -2.5600544603  0.0914401844 -0.0375652214
H  -2.3867071615  2.0636664615 -0.3267049286
H   0.1635414898  2.2179661819 -0.0816432145
H  -3.5686808242 -0.0322658298  0.1484204648
N   1.6481044636  0.0710105759 -0.1377628903
O   2.1209719182 -1.0192749522 -0.0237307879
O   2.2711297436  1.0461879333 -0.0268458453
C  -1.8566311180 -1.0545052002  0.1206808195
H  -2.5698950586 -1.8611571267  0.0704664636
C  -0.4877751976 -1.3545875872 -0.0651527727
H   0.1214357913 -2.2766137997  0.2007231601
14
Step 14  E=-436.4144589124  phi=68.949  theta=59.982
C  -1.7769941819  1.1919478708  0.0482565954
C  -0.3247620825  1.2268889447 -0.0558391249
C   0.3278746928  0.0463337312 -0.0253315141
C  -2.5602284302  0.1114532790 -0.0341700706
H  -2.3613340876  2.0667073266 -0.3120625223
H   0.1711896210  2.2034268836 -0.0821326298
H  -3.5884530980 -0.0090553341  0.1511893955
N   1.6539053928  0.0729234549 -0.1467971214
O   2.1165270310 -1.0206522672 -0.0343362725
O   2.2780312755  1.0479911751 -0.0274609392
C  -1.8426462939 -1.0623569273  0.1234646189
H  -2.5855889388 -1.8715815943  0.0830724518
C  -0.4876450265 -1.3504955203 -0.0706122866
H   0.0912385362 -2.2685814452  0.1845212639
14
Step 15  E=-436.4234165277  phi=68.634  theta=60.311
C  -1.7691689354  1.1954988820  0.0536790065
C  -0.3217411165  1.2326560287 -0.0522418093
C   0.3214134149  0.0372645737 -0.0295128252
C  -2.5595992601  0.1311567340 -0.0301274709
H  -2.3326501009  2.0707818249 -0.2933173511
H   0.1774423076  2.1839962968 -0.0831118902
H  -3.6115562446  0.0176205914  0.1520139723
N   1.6602640091  0.0743643322 -0.1553143584
O   2.1126697603 -1.0227310491 -0.0450875505
O   2.2853060727  1.0505508047 -0.0282701913
C  -1.8288513582 -1.0717916212  0.1256673453
H  -2.5940273893 -1.8804348639  0.0980793054
C  -0.4872372945 -1.3449612980 -0.0752445829
H   0.0564634691 -2.2552864152  0.1649062560
14
Step 16  E=-436.4292853330  phi=68.298  theta=60.689
C  -1.7612978788  1.2001249764  0.0582883199
C  -0.3194812856  1.2382760087 -0.0484865549
C   0.3130231643  0.0275631525 -0.0341050493
C  -2.5583017213  0.1501239392 -0.0253920127
H  -2.3016709791  2.0770337801 -0.2709137474
H   0.1833405433  2.1620205432 -0.0845405193
H  -3.6348218039  0.0477494277  0.1505579533
N   1.6670198533  0.0753567213 -0.1632956581
O   2.1094359684 -1.0255064946 -0.0559885801
O   2.2929123535  1.0537949043 -0.0292778415
C  -1.8156982012 -1.0824804994  0.1272868105
H  -2.5939182395 -1.8866475819  0.1152572819
C  -0.4866076443 -1.3379209636 -0.0791075009
H   0.0192130229 -2.2390497800  0.1425005033
14
Step 17  E=-436.4319801228  phi=67.950  theta=61.111
C  -1.7532968929  1.2058372541  0.0621495996
C  -0.3179933057  1.2433348006 -0.0445763134
C   0.3029323511  0.0174751005 -0.0391197430
C  -2.5564839137  0.1679999961 -0.0199413301
H  -2.2695705567  2.0867688540 -0.2453983458
H   0.1902519599  2.1403360421 -0.0864079318
H  -3.6554094244  0.0811751766  0.1466105293
N   1.6740126025  0.0759322407 -0.1707240291
O   2.1068566126 -1.0289620255 -0.0670415660
O   2.3007976666  1.0576324203 -0.0304890691
C  -1.8035670632 -1.0940693432  0.1283438686
H  -2.5846786732 -1.8898179089  0.1342937110
C  -0.4858296040 -1.3292582214 -0.0822813858
H  -0.0179856300 -2.2230196058  0.1180820422
14
Step 18  E=-436.4328695033  phi=67.600  theta=61.571
C  -1.7450882255  1.2126202644  0.0653351956
C  -0.3173005931  1.2474271399 -0.0405165278
C   0.2913954531  0.0072439374 -0.0445618539
C  -2.5542786771  0.1845077882 -0.0137766681
H  -2.2375517694  2.1012740709 -0.2173399873
H   0.1996735000  2.1218304069 -0.0887322347
H  -3.6710687558  0.1175873917  0.1401234671
N   1.6810916695  0.0761273925 -0.1775854326
O   2.1049566824 -1.0330683827 -0.0782471027
O   2.3089010557  1.0619563387 -0.0319099304
C  -1.7927614587 -1.1061815701  0.1288787650
H  -2.5664529600 -1.8901841711  0.1548215090
C  -0.4849760159 -1.3188366120 -0.0848572215
H  -0.0524850346 -2.2107958541  0.0924430831
14
Step 19  E=-436.4340963083  phi=67.254  theta=62.067
C  -1.7366204952  1.2204473572  0.0679157774
C  -0.3174086555  1.2502198852 -0.0363171977
C   0.2786854178 -0.0028916342 -0.0504291152
C  -2.5517880421  0.1994477755 -0.0069199088
H  -2.2066791084  2.1215485713 -0.1872327336
H   0.2128710040  2.1087817850 -0.0915360183
H  -3.6802306323  0.1565385778  0.1312088552
N   1.6881236140  0.0759803250 -0.1838697357
O   2.1037544269 -1.0377830380 -0.0896043311
O   2.3171554992  1.0666474153 -0.0335471678
C  -1.7835003295 -1.1184162143  0.1289461093
H  -2.5401557799 -1.8886379379  0.1764559362
C  -0.4840865056 -1.3065729163 -0.0869179720
H  -0.0820168061 -2.2055746250  0.0661746247
14
Step 20  E=-436.4368336220  phi=66.921  theta=62.595
C  -1.7278871934  1.2293009427  0.0699530388
C  -0.3182674235  1.2515146340 -0.0319967071
C   0.2650880552 -0.0126975683 -0.0567120691
C  -2.5490750210  0.2126932064  0.0005907644
H  -2.1777162668  2.1479989656 -0.1554179430
H   0.2304482226  2.1021940242 -0.0947984552
H  -3.6820116812  0.1974745319  0.1201169892
N   1.6949970231  0.0755278207 -0.1895714977
O   2.1032608070 -1.0430501571 -0.1011110663
O   2.3254903795  1.0715782186 -0.0354079135
C  -1.7759081287 -1.1303436824  0.1286080569
H  -2.5075228321 -1.8867618957  0.1988476575
C  -0.4831364801 -1.2925362703 -0.0885223317
H  -0.1052038655 -2.2090000013  0.0394875847
14
Step 21  E=-436.4400996879  phi=66.606  theta=63.157
C  -1.7189373697  1.2391892340  0.0714975488
C  -0.3197459332  1.2512786379 -0.0275855862
C   0.2508978291 -0.0219416430 -0.0633945322
C  -2.5461588263  0.2241820572  0.0087052376
H  -2.1510332865  2.1802127970 -0.1220687326
H   0.2520639381  2.1014862282 -0.0984054180
H  -3.6761929345  0.2397686111  0.1072068850
N   1.7016250087  0.0748028220 -0.1946905264
O   2.1034792222 -1.0488011912 -0.1127638774
O   2.3338338100  1.0766171713 -0.0374993273
C  -1.7700094043 -1.1415058131  0.1279254812
H  -2.4710898450 -1.8868251934  0.2217543526
C  -0.4820343248 -1.2770167710 -0.0897039160
H  -0.1217699823 -2.2203749229  0.0122249744
14
Step 22  E=-436.4418092070  phi=66.317  theta=63.750
C  -1.7098739071  1.2501497002  0.0725929630
C  -0.3216357316  1.2496266878 -0.0231274278
C   0.2364157090 -0.0303895022 -0.0704543398
C  -2.5430108257  0.2339063808  0.0173653359
H  -2.1266252924  2.2169262003 -0.0872524326
H   0.2764800244  2.1047405284 -0.1021306907
H  -3.6632001645  0.2827570082  0.0929142950
N   1.7079457261  0.0738327318 -0.1992321928
O   2.1044055260 -1.0549561799 -0.1245581116
O   2.3421146450  1.0816323339 -0.0398282331
C  -1.7657409841 -1.1514312392  0.1269491126
H  -2.4339574806 -1.8916013795  0.2451096785
C  -0.4806569205 -1.2605115440 -0.0904874100
H  -0.1323018834 -2.2368363270 -0.0159151466
14
Step 23  E=-436.4409180494  phi=66.060  theta=64.375
C  -1.7008401445  1.2622363365  0.0732840879
C  -0.3236810234  1.2467677994 -0.0186758804
C   0.2219480126 -0.0378018070 -0.0778645356
C  -2.5395518594  0.2419005130  0.0265081992
H  -2.1042264363  2.2562167444 -0.0510368978
H   0.3019083278  2.1093436849 -0.1056620870
H  -3.6440854564  0.3257765492  0.0777169223
N   1.7139213875  0.0726386076 -0.2032075107
O   2.1060282950 -1.0614257097 -0.1364878555
O   2.3502642211  1.0864947782 -0.0424008360
C  -1.7629957357 -1.1596802971  0.1257163642
H  -2.3992061570 -1.9038421285  0.2690282266
C  -0.4789019137 -1.2436390693 -0.0909073750
H  -0.1377744181 -2.2543586689 -0.0451167122
14
Step 24  E=-436.4380598447  phi=65.841  theta=65.031
C  -1.6920002777  1.2754969794  0.0736243434
C  -0.3256183374  1.2429480985 -0.0142892232
C   0.2078045213 -0.0439349134 -0.0855947725
C  -2.5356533393  0.2482293460  0.0360694124
H  -2.0834580293  2.2958374853 -0.0135832041
H   0.3264462076  2.1126598644 -0.1086536602
H  -3.6204846797  0.3682068143  0.0620951831
N   1.7195359732  0.0712351705 -0.2066329907
O   2.1083293102 -1.0681133868 -0.1485458786
O   2.3582174057  1.0910815301 -0.0452224141
C  -1.7616936111 -1.1659214445  0.1242607257
H  -2.3690334122 -1.9253784812  0.2936678794
C  -0.4767264916 -1.2270402128 -0.0910164988
H  -0.1391556340 -2.2688827440 -0.0753119297
14
Step 25  E=-436.4343467774  phi=65.667  theta=65.716
C  -1.6835196407  1.2899513267  0.0736794296
C  -0.3272084194  1.2384117227 -0.0100249137
C   0.1942943757 -0.0485468638 -0.0936130333
C  -2.5311464823  0.2529780315  0.0459860434
H  -2.0639539819  2.3335598335  0.0248095989
H   0.3484198282  2.1124837015 -0.1107752861
H  -3.5945056561  0.4095111844  0.0464903022
N   1.7247922017  0.0696316301 -0.2095303206
O   2.1112842888 -1.0749186735 -0.1607235652
O   2.3659142579  1.0952774085 -0.0482971385
C  -1.7618415465 -1.1700083274  0.1226325392
H  -2.3440603117 -1.9562025546  0.3189576224
C  -0.4741614791 -1.2113092805 -0.0908820877
H  -0.1372202399 -2.2770504385 -0.1061943538
14
Step 26  E=-436.4304015467  phi=65.545  theta=66.426
C  -1.6755482023  1.3055758668  0.0735267383
C  -0.3282569023  1.2333826474 -0.0059355143
C   0.1817190657 -0.0514088755 -0.1018873350
C  -2.5258438282  0.2562446383  0.0561992112
H  -2.0454388072  2.3674340519  0.0637079186
H   0.3665661860  2.1072515829 -0.1117465603
H  -3.5684990812  0.4492593727  0.0312674271
N   1.7297077498  0.0678327660 -0.2119259506
O   2.1148638220 -1.0817397539 -0.1730108662
O   2.3733003611  1.0989767892 -0.0516279775
C  -1.7635347364 -1.1720045231  0.1209162795
H  -2.3233362796 -1.9941605825  0.3443692647
C  -0.4713064957 -1.1969593588 -0.0905773806
H  -0.1325191007 -2.2764922376 -0.1373024163
14
Step 27  E=-436.4266378048  phi=65.478  theta=67.161
C  -1.6682080108  1.3222967748  0.0732519377
C  -0.3286259082  1.2280602836 -0.0020658756
C   0.1703616233 -0.0523235526 -0.1103872556
C  -2.5195733852  0.2581374028  0.0666551651
H  -2.0277610922  2.3959462162  0.1025799714
H   0.3801026325  2.0960955644 -0.1113531623
H  -3.5446982738  0.4871071357  0.0166999334
N   1.7343111762  0.0658401785 -0.2138506333
O   2.1190342409 -1.0884762949 -0.1853962899
O   2.3803265497  1.1020850241 -0.0552165343
C  -1.7668969265 -1.1721331223  0.1192286547
H  -2.3050427086 -2.0355291350  0.3689282148
C  -0.4683147088 -1.1844050313 -0.0901729528
H  -0.1254124998 -2.2658544881 -0.1681072736
14
Step 28  E=-436.4236822528  phi=65.472  theta=67.915
C  -1.6615846006  1.3399884228  0.0729443067
C  -0.3282397945  1.2226207405  0.0015488564
C   0.1604738830 -0.0511478038 -0.1190850790
C  -2.5122185511  0.2587776105  0.0773038470
H  -2.0108985620  2.4180952203  0.1408475138
H   0.3887502096  2.0788281977 -0.1094532603
H  -3.5247951720  0.5227186510  0.0029926378
N   1.7386379918  0.0636538187 -0.2153389596
O   2.1237585502 -1.0950319849 -0.1978669321
O   2.3869497915  1.1045188374 -0.0590629632
C  -1.7720073085 -1.1706870320  0.1176989752
H  -2.2873538489 -2.0760486113  0.3914373245
C  -0.4653734965 -1.1739476377 -0.0897306008
H  -0.1161060941 -2.2447526513 -0.1980823621
14
Step 29  E=-436.4220370112  phi=65.528  theta=68.688
C  -1.6557224072  1.3584743658  0.0726917001
C  -0.3270895773  1.2172189235  0.0048849164
C   0.1522634168 -0.0478182432 -0.1279562928
C  -2.5037495886  0.2583064383  0.0880949636
H  -1.9949521927  2.4334255745  0.1779401940
H   0.3927451719  2.0559236855 -0.1059810633
H  -3.5096059966  0.5556527146 -0.0096595130
N   1.7427269794  0.0612733935 -0.2164289319
O   2.1289973932 -1.1013166897 -0.2104085673
O   2.3931334231  1.1062065786 -0.0631659017
C  -1.7788561310 -1.1679521692  0.1164463970
H  -2.2689865920 -2.1118059183  0.4107349651
C  -0.4626839314 -1.1657539714 -0.0892996006
H  -0.1046604795 -2.2137560511 -0.2267614682
14
Step 30  E=-436.4214611560  phi=65.646  theta=69.476
C  -1.6506236931  1.3775285972  0.0725754207
C  -0.3252369392  1.2119892714  0.0079314527
C   0.1458829832 -0.0423743851 -0.1369793462
C  -2.4942329192  0.2568906134  0.0989735786
H  -1.9801406911  2.4420439424  0.2133481568
H   0.3928586161  2.0285147240 -0.1009501343
H  -3.4989799455  0.5852757449 -0.0210061562
N   1.7466169944  0.0586995990 -0.2171615764
O   2.1347097992 -1.1072481641 -0.2230057813
O   2.3988469586  1.1070883449 -0.0675223985
C  -1.7873350573 -1.1641669440  0.1155651756
H  -2.2493629983 -2.1397116208  0.4258694912
C  -0.4604438267 -1.1598302347 -0.0889140563
H  -0.0909631392 -2.1744338118 -0.2538017046
14
Step 31  E=-436.4208585312  phi=65.820  theta=70.277
C  -1.6462504925  1.3968767099  0.0726651123
C  -0.3228162553  1.2070455647  0.0106916987
C   0.1414256587 -0.0349729858 -0.1461346692
C  -2.4838153701  0.2547218318  0.1098780577
H  -1.9667981562  2.4446304599  0.2466742339
H   0.3904174606  1.9983875612 -0.0944541806
H  -3.4919848495  0.6107608152 -0.0307039871
N   1.7503445095  0.0559350782 -0.2175805693
O   2.1408539271 -1.1127532205 -0.2356421434
O   2.4040659608  1.1071158821 -0.0721278539
C  -1.7972482371 -1.1595116399  0.1151190846
H  -2.2285466823 -2.1576467449  0.4361783003
C  -0.4588384902 -1.1560009015 -0.0885899181
H  -0.0746652244 -2.1294230331 -0.2790613976
14
Step 32  E=-436.4189287797  phi=66.044  theta=71.090
C  -1.6425293347  1.4161984882  0.0730138874
C  -0.3200304778  1.2024833301  0.0131831257
C   0.1389268609 -0.0258883926 -0.1554033879
C  -2.4726932777  0.2520091421  0.1207415262
H  -1.9553708035  2.4424352303  0.2776856131
H   0.3872846915  1.9679242494 -0.0866582351
H  -3.4872577636  0.6311766217 -0.0383247638
N   1.7539420213  0.0529849611 -0.2177318571
O   2.1473876916 -1.1177684236 -0.2483004121
O   2.4087720855  1.1062523261 -0.0769759972
C  -1.8083305711 -1.1541115133  0.1151409763
H  -2.2071194863 -2.1644528009  0.4413083965
C  -0.4580392648 -1.1539078860 -0.0883215704
H  -0.0551125084 -2.0823976796 -0.3026808824
14
Step 33  E=-436.4152636256  phi=66.307  theta=71.912
C  -1.6393586730  1.4351353172  0.0736542522
C  -0.3171344839  1.1983907659  0.0154355797
C   0.1383723085 -0.0154971916 -0.1647663058
C  -2.4610809795  0.2489673622  0.1314957442
H  -1.9464035476  2.4372290258  0.3063571096
H   0.3857212174  1.9399108731 -0.0777695908
H  -3.4833582808  0.6456193300 -0.0433984688
N   1.7574372778  0.0498567920 -0.2176632642
O   2.1542694402 -1.1222402854 -0.2609627525
O   2.4129532296  1.1044719103 -0.0820588973
C  -1.8202662315 -1.1480408903  0.1156337005
H  -2.1860756243 -2.1599015989  0.4412192745
C  -0.4582022363 -1.1530496604 -0.0880818544
H  -0.0313520510 -2.0377278313 -0.3251142178
14
Step 34  E=-436.4109721723  phi=66.599  theta=72.740
C  -1.6366193580  1.4533066063  0.0745963216
C  -0.3143994793  1.1948736729  0.0174866136
C   0.1397092886 -0.0042501543 -0.1742035221
C  -2.4491878809  0.2458056703  0.1420753688
H  -1.9405032102  2.4311606612  0.3328876540
H   0.3880444385  1.9171360056 -0.0679816141
H  -3.4790212343  0.6533333681 -0.0454659653
N   1.7608531273  0.0465598402 -0.2174241238
O   2.1614586948 -1.1261251509 -0.2736109681
O   2.4166035962  1.1017597380 -0.0873669757
C  -1.8327054647 -1.1413212861  0.1165705678
H  -2.1667450288 -2.1447130766  0.4361928766
C  -0.4594524520 -1.1528733444 -0.0878336409
H  -0.0023590423 -1.9996405971 -0.3470134317
14
Step 35  E=-436.4078278015  phi=66.905  theta=73.569
C  -1.6341885620  1.4703383584  0.0758306821
C  -0.3120587134  1.1920917100  0.0193746798
C   0.1428579245  0.0073628034 -0.1836945542
C  -2.4372055042  0.2427190385  0.1524211872
H  -1.9382646090  2.4264772194  0.3576635084
H   0.3960775133  1.9017987136 -0.0574023145
H  -3.4732921415  0.6537933753 -0.0441219965
N   1.7642077171  0.0431039521 -0.2170649796
O   2.1689170844 -1.1293889342 -0.2862267440
O   2.4197237132  1.0981116463 -0.0928889948
C  -1.8452797149 -1.1339120963  0.1178951837
H  -2.1507338991 -2.1206309517  0.4268541570
C  -0.4618434808 -1.1529024029 -0.0875580542
H   0.0324308579 -1.9710168259 -0.3688956195
14
Step 36  E=-436.4064981185  phi=67.213  theta=74.388
C  -1.6319564658  1.4859029078  0.0773377751
C  -0.3102499592  1.1902882427  0.0211330696
C   0.1477196316  0.0188492698 -0.1932182991
C  -2.4253015419  0.2398829122  0.1624820442
H  -1.9401553932  2.4251112222  0.3811470383
H   0.4105649825  1.8949303024 -0.0460065042
H  -3.4655793790  0.6467472751 -0.0390431337
N   1.7675146918  0.0394983763 -0.2166373622
O   2.1766091417 -1.1320070217 -0.2987919209
O   2.4223206018  1.0935341131 -0.0986120357
C  -1.8576153031 -1.1256985706  0.1195218853
H  -2.1398622441 -2.0905072120  0.4141827291
C  -0.4653082436 -1.1528381325 -0.0872880107
H   0.0724900211 -1.9524797456 -0.3907244076
14
Step 37  E=-436.4061124929  phi=67.509  theta=75.184
C  -1.6298429591  1.4997608696  0.0791027286
C  -0.3089822418  1.1897881198  0.0227878208
C   0.1541813600  0.0297488179 -0.2027519556
C  -2.4136170041  0.2374505117  0.1722159251
H  -1.9463801153  2.4282343503  0.4037027934
H   0.4308716560  1.8961480263 -0.0336528930
H  -3.4556660948  0.6322332140 -0.0300038173
N   1.7707830563  0.0357508914 -0.2161936189
O   2.1845024707 -1.1339645691 -0.3112888015
O   2.4244079949  1.0880442543 -0.1045214869
C  -1.8693462164 -1.1164901286  0.1213399856
H  -2.1360689624 -2.0582597194  0.3994693030
C  -0.4696420192 -1.1525722922 -0.0871211272
H   0.1159322694 -1.9424726647 -0.4117300816
14
Step 38  E=-436.4058637278  phi=67.783  theta=75.936
C  -1.6278096528  1.5117892970  0.0811302177
C  -0.3081442883  1.1909531537  0.0243594718
C   0.1621155536  0.0396635288 -0.2122683831
C  -2.4022638168  0.2355529172  0.1815906528
H  -1.9567730952  2.4359598695  0.4254247901
H   0.4551591704  1.9039015643 -0.0201639549
H  -3.4437122387  0.6105821217 -0.0168853417
N   1.7740165423  0.0318669573 -0.2157867417
O   2.1925685856 -1.1352567318 -0.3237004071
O   2.4260060212  1.0816701798 -0.1106010544
C  -1.8801281556 -1.1060515382  0.1232271201
H  -2.1412443301 -2.0284644223  0.3841497802
C  -0.4745385026 -1.1521175366 -0.0871992165
H   0.1598789454 -1.9382299397 -0.4306246451
14
Step 39  E=-436.4063741121  phi=68.026  theta=76.621
C  -1.6258627415  1.5219829096  0.0834520514
C  -0.3075438463  1.1941138178  0.0258650315
C   0.1713771743  0.0482827165 -0.2217323565
C  -2.3913222758  0.2343025040  0.1905844496
H  -1.9707741395  2.4473460419  0.4460523597
H   0.4809242711  1.9160386480 -0.0054173529
H  -3.4302583939  0.5824105580  0.0003198381
N   1.7772125161  0.0278492133 -0.2154700834
O   2.2007828617 -1.1358892577 -0.3360106963
O   2.4271413770  1.0744512486 -0.1168328100
C  -1.8896581899 -1.0941868912  0.1250752975
H  -2.1569510591 -2.0053584873  0.3694777770
C  -0.4796560338 -1.1515219103 -0.0876710393
H   0.2011702835 -1.9368741681 -0.4460141081
14
Step 40  E=-436.4089687783  phi=68.234  theta=77.217
C  -1.6240458524  1.5304286702  0.0861238577
C  -0.3069522752  1.1995087229  0.0273172209
C   0.1818001407  0.0553989064 -0.2310969680
C  -2.3808390496  0.2337992063  0.1991863561
H  -1.9875044255  2.4606965752  0.4650176079
H   0.5055831042  1.9303700930  0.0106011872
H  -3.4162231646  0.5485997112  0.0215102537
N   1.7803608745  0.0236970242 -0.2152969471
O   2.2091230948 -1.1358792962 -0.3482048065
O   2.4278476849  1.0664384759 -0.1231973089
C  -1.8977018438 -1.0808632995  0.1268225320
H  -2.1840417737 -1.9913981236  0.3561278551
C  -0.4846748551 -1.1508169836 -0.0886624169
H   0.2369502422 -1.9360834361 -0.4567265833
14
Step 41  E=-436.4139493982  phi=68.405  theta=77.701
C  -1.6224262932  1.5372670048  0.0892137240
C  -0.3061374690  1.2072514259  0.0287213437
C   0.1931955376  0.0609123784 -0.2403014802
C  -2.3708281529  0.2341379112  0.2073960717
H  -2.0059084251  2.4740010132  0.4815890472
H   0.5268779610  1.9450379462  0.0277912924
H  -3.4028654220  0.5102494207  0.0464899224
N   1.7834434749  0.0194050876 -0.2153201899
O   2.2175704406 -1.1352551004 -0.3602690729
O   2.4281656382  1.0576953223 -0.1296738443
C  -1.9041194282 -1.0663064404  0.1284691691
H  -2.2222955610 -1.9861539649  0.3439838408
C  -0.4893266955 -1.1500023495 -0.0902629935
H   0.2649812712 -1.9342860357 -0.4619560596
14
Step 42  E=-436.4202896980  phi=68.540  theta=78.057
C  -1.6210798127  1.5426554324  0.0927890212
C  -0.3048836243  1.2173256508  0.0300722595
C   0.2053528040  0.0648239441 -0.2492715452
C  -2.3612794153  0.2354145772  0.2152225626
H  -2.0249049717  2.4853346792  0.4950356885
H   0.5430631741  1.9586781476  0.0459604906
H  -3.3916662159  0.4685982237  0.0750014685
N   1.7864338663  0.0149625769 -0.2155916988
O   2.2261076224 -1.1340562094 -0.3721912763
O   2.4281421087  1.0482984345 -0.1362405974
C  -1.9088750402 -1.0509903196  0.1300630261
H  -2.2702881547 -1.9864240849  0.3323053291
C  -0.4934037044 -1.1490488819 -0.0925254091
H   0.2836945819 -1.9306129739 -0.4612755114
14
Step 43  E=-436.4268874222  phi=68.644  theta=78.277
C  -1.6200772466  1.5467432615  0.0969061487
C  -0.3030032524  1.2295995227  0.0313533358
C   0.2180445687  0.0672190944 -0.2579218893
C  -2.3521771248  0.2377287283  0.2226811827
H  -2.0435070521  2.4931242500  0.5047543721
H   0.5529565854  1.9704496616  0.0648570117
H  -3.3840879078  0.4249178453  0.1067753963
N   1.7892981958  0.0103519031 -0.2161618542
O   2.2347198675 -1.1323327318 -0.3839606375
O   2.4278294154  1.0383380940 -0.1428747923