14
Step 0  E=-436.5239094398  phi=138.962  theta=117.327
C  -1.8807064817  1.1910356838 -0.1057182289
C  -0.4795386095  1.2078647834 -0.0932767389
C   0.1966895634  0.0146361167  0.0023550194
C  -2.5644769046 -0.0217873750 -0.0468023027
H  -2.4294554000  2.0968523915 -0.2136579553
H   0.0529625002  2.1209614568 -0.1415935514
H  -3.6645226059 -0.0426572697 -0.0406589348
N   1.6491902639  0.0161071339  0.0161320011
O   2.2130084386 -1.0522748510  0.1055788799
O   2.2119430110  1.0850728911 -0.0346513595
C  -1.8804776618 -1.1895471502  0.0576887352
H  -2.4225465776 -2.1434056427  0.0989611712
C  -0.4821137691 -1.2378538546  0.0659896095
H   0.0887913365 -2.1170447050  0.1621287051
14
Step 1  E=-436.5098192274  phi=138.837  theta=117.645
C  -1.8755570132  1.1924363275 -0.0917479029
C  -0.4611218543  1.2079126112 -0.0909329134
C   0.2159944786  0.0276132837  0.0014953903
C  -2.5592112050 -0.0240654148 -0.0474039979
H  -2.4222346606  2.0681487734 -0.2298880361
H   0.0456718405  2.1124036943 -0.1323049336
H  -3.6656157773 -0.0582182840 -0.0161427918
N   1.6454897347  0.0196929367  0.0027820575
O   2.2042622768 -1.0473241311  0.0956439999
O   2.2156673658  1.0804531420 -0.0330981086
C  -1.8894011025 -1.1624296841  0.0628860097
H  -2.4366164188 -2.1274362096  0.0882326297
C  -0.4806651772 -1.2598555894  0.0537799269
H   0.0909822516 -2.1062862014  0.1694235007
14
Step 2  E=-436.4893075399  phi=138.693  theta=117.955
C  -1.8702833352  1.1935033417 -0.0778910641
C  -0.4435346717  1.2078109614 -0.0885220434
C   0.2346635710  0.0397478470  0.0005701377
C  -2.5547721862 -0.0253127679 -0.0478122935
H  -2.4132394712  2.0392014379 -0.2450338662
H   0.0415484412  2.1085039793 -0.1234970511
H  -3.6573968084 -0.0730858817  0.0074391875
N   1.6422151461  0.0229486524 -0.0104473739
O   2.1953350391 -1.0423085615  0.0856252177
O   2.2194155192  1.0760653103 -0.0315718596
C  -1.8976802923 -1.1366521935  0.0680392732
H  -2.4493296482 -2.1087058486  0.0777956550
C  -0.4795203798 -1.2803742898  0.0415426010
H   0.0958917568 -2.1017115234  0.1767258842
14
Step 3  E=-436.4665186939  phi=138.522  theta=118.259
C  -1.8646582277  1.1939449167 -0.0642006540
C  -0.4270704986  1.2075190105 -0.0860150117
C   0.2524440903  0.0506936743 -0.0004466744
C  -2.5513446195 -0.0250589986 -0.0479678956
H  -2.4042027505  2.0136673152 -0.2592146106
H   0.0418201483  2.1112990872 -0.1153251498
H  -3.6403319872 -0.0866787167  0.0295370118
N   1.6394586347  0.0258894463 -0.0235144437
O   2.1862734004 -1.0373360466  0.0755182074
O   2.2232316180  1.0720083494 -0.0300916009
C  -1.9049151418 -1.1129379671  0.0731360160
H  -2.4604466581 -2.0866127625  0.0679200701
C  -0.4788473227 -1.2988479685  0.0292837658
H   0.1047692215 -2.1058674360  0.1843434588
14
Step 4  E=-436.4451114004  phi=138.319  theta=118.558
C  -1.8584844354  1.1935238118 -0.0507150664
C  -0.4119367657  1.2070891806 -0.0833885791
C   0.2690985354  0.0601813358 -0.0015825680
C  -2.5490272850 -0.0228531480 -0.0478236880
H  -2.3967386900  1.9948534867 -0.2727229199
H   0.0469745375  2.1215663972 -0.1078744287
H  -3.6160009213 -0.0984225676  0.0496834768
N   1.6373188860  0.0285416246 -0.0363811149
O   2.1771312009 -1.0325207968  0.0653182243
O   2.2271587377  1.0683726761 -0.0286744570
C  -1.9107128837 -1.0919594721  0.0781662815
H  -2.4699096839 -2.0610348362  0.0588926785
C  -0.4787299820 -1.3149379798  0.0170283765
H   0.1178002271 -2.1195067538  0.1924223160
14
Step 5  E=-436.4267265381  phi=138.081  theta=118.856
C  -1.8516459619  1.1921315738 -0.0374790619
C  -0.3982427701  1.2066817294 -0.0806239809
C   0.2844010902  0.0680123036 -0.0028650872
C  -2.5478010761 -0.0183112747 -0.0473445764
H  -2.3917670120  1.9848688019 -0.2857673463
H   0.0566806802  2.1385421770 -0.1011697835
H  -3.5871135509 -0.1077914121  0.0675609840
N   1.6358958093  0.0309424933 -0.0490133358
O   2.1679696447 -1.0279818863  0.0550201175
O   2.2312374829  1.0652378811 -0.0273357729
C  -1.9147210219 -1.0742810603  0.0831190867
H  -2.4778403610 -2.0323454915  0.0509937700
C  -0.4791355770 -1.3285386031  0.0048334566
H   0.1338555179 -2.1413847419  0.2007568836
14
Step 6  E=-436.4111689223  phi=137.807  theta=119.153
C  -1.8441433333  1.1898371373 -0.0245677182
C  -0.3860103321  1.2065360955 -0.0777044593
C   0.2981371197  0.0740541030 -0.0043210367
C  -2.5475019737 -0.0111646332 -0.0465060284
H  -2.3890980076  1.9840586535 -0.2981708613
H   0.0699663420  2.1601648191 -0.0951988958
H  -3.5574443105 -0.1143623354  0.0830640675
N   1.6352838520  0.0331397692 -0.0613809850
O   2.1588570107 -1.0238413944  0.0446183761
O   2.2355047412  1.0626709901 -0.0260892697
C  -1.9166577937 -1.0603019271  0.0879770465
H  -2.4845413670 -2.0014121345  0.0444757351
C  -0.4799362598 -1.3397221165 -0.0072122540
H   0.1508089849 -2.1688067379  0.2087686488
14
Step 7  E=-436.3979953288  phi=137.499  theta=119.452
C  -1.8360882648  1.1868788447 -0.0120965518
C  -0.3751981290  1.2069132605 -0.0746132530
C   0.3101060534  0.0782361738 -0.0059763950
C  -2.5478215496 -0.0012984948 -0.0452907044
H  -2.3874650100  1.9910813946 -0.3092292104
H   0.0855353760  2.1836819467 -0.0899333599
H  -3.5315056351 -0.1178642598  0.0963264001
N   1.6355644414  0.0351903470 -0.0734575209
O   2.1498674931 -1.0202220418  0.0341071604
O   2.2399926409  1.0607253463 -0.0249472186
C  -1.9163354423 -1.0502120898  0.0927113072
H  -2.4904995319 -1.9695711685  0.0395437032
C  -0.4809620550 -1.3486552552 -0.0190015614
H   0.1661731619 -2.1985205238  0.2156489094
14
Step 8  E=-436.3878520110  phi=137.158  theta=119.753
C  -1.8276601731  1.1836074611 -0.0002098648
C  -0.3657260701  1.2080383364 -0.0713328096
C   0.3201266627  0.0805458331 -0.0078566023
C  -2.5483597569  0.0112268638 -0.0436808543
H  -2.3849796174  2.0035490542 -0.3178273777
H   0.1020640357  2.2062869992 -0.0853394113
H  -3.5137737512 -0.1181754107  0.1076596093
N   1.6367981094  0.0371582477 -0.0852193371
O   2.1410795548 -1.0172442131  0.0234803367
O   2.2447277754  1.0594400329 -0.0239206123
C  -1.9136717560 -1.0439760405  0.0972790797
H  -2.4963749423 -1.9385552151  0.0363398444
C  -0.4820494313 -1.3555293873 -0.0304252925
H   0.1776641604 -2.2274532882  0.2205480169
14
Step 9  E=-436.3822689244  phi=136.788  theta=120.056
C  -1.8190510673  1.1804170286  0.0109438345
C  -0.3574920670  1.2100635957 -0.0678451204
C   0.3280446850  0.0810234147 -0.0099870757
C  -2.5487308229  0.0261744267 -0.0416451638
H  -2.3797050064  2.0188097840 -0.3227128934
H   0.1183901868  2.2255586896 -0.0813799394
H  -3.5074976536 -0.1152253125  0.1173741175
N   1.6390170619  0.0391115656 -0.0966448689
O   2.1325739945 -1.0150221644  0.0127314833
O   2.2497307303  1.0588397590 -0.0230193128
C  -1.9086889305 -1.0413514371  0.1016248441
H  -2.5029484667 -1.9103359684  0.0349362936
C  -0.4830679259 -1.3605213168 -0.0413841224
H   0.1835085480 -2.2530985415  0.2227140528
14
Step 10  E=-436.3822660247  phi=136.396  theta=120.361
C  -1.8104229632  1.1776929089  0.0212350978
C  -0.3503818319  1.2130536951 -0.0641326079
C   0.3337413163  0.0797561930 -0.0123937331
C  -2.5486791937  0.0431467247 -0.0391253185
H  -2.3700755548  2.0345227858 -0.3227580611
H   0.1335981202  2.2396707695 -0.0780128546
H  -3.5135793772 -0.1088295343  0.1255515271
N   1.6422192753  0.0411185403 -0.1077135357
O   2.1244313576 -1.0136598007  0.0018538698
O   2.2550158914  1.0589350588 -0.0222521723
C  -1.9015049798 -1.0419413650  0.1056844462
H  -2.5109984095 -1.8868575919  0.0353440567
C  -0.4839272456 -1.3637788465 -0.0517943557
H   0.1825286974 -2.2736259795  0.2215599594
14
Step 11  E=-436.3874327664  phi=135.988  theta=120.667
C  -1.8018854348  1.1757829313  0.0305681575
C  -0.3442751471  1.2169861299 -0.0601791990
C   0.3371413852  0.0768712161 -0.0151033296
C  -2.5481370067  0.0616215625 -0.0360340050
H  -2.3550945736  2.0489474155 -0.3171237536
H   0.1470407321  2.2474475924 -0.0751894063
H  -3.5302491190 -0.0985854157  0.1319307068
N   1.6463652167  0.0432426377 -0.1184046564
O   2.1167291813 -1.0132459788 -0.0091595896
O   2.2605914668  1.0597227398 -0.0216271274
C  -1.8923243094 -1.0452670401  0.1093901023
H  -2.5210991321 -1.8696862319  0.0375408639
C  -0.4845735086 -1.3654187751 -0.0615899340
H   0.1741177822 -2.2878566696  0.2166826746
14
Step 12  E=-436.3962892863  phi=135.572  theta=120.973
C  -1.7934892470  1.1749829728  0.0388873314
C  -0.3390516135  1.2217588330 -0.0559714183
C   0.3382197756  0.0725275845 -0.0181434327
C  -2.5471942115  0.0810057566 -0.0322699321
H  -2.3343765115  2.0610368983 -0.3053292370
H   0.1583390226  2.2483525489 -0.0728539255
H  -3.5537699888 -0.0839349859  0.1360008172
N   1.6513779729  0.0455368648 -0.1286965430
O   2.1095391962 -1.0138495869 -0.0203164126
O   2.2664596307  1.0611865214 -0.0211512694
C  -1.8814308423 -1.0508401184  0.1126748724
H  -2.5333882099 -1.8596787823  0.0415083753
C  -0.4849820490 -1.3655281638 -0.0707232278
H   0.1581892210 -2.2952105566  0.2078630481
14
Step 13  E=-436.4070685909  phi=135.155  theta=121.277
C  -1.7852293332  1.1755270250  0.0461784474
C  -0.3345973774  1.2271991812 -0.0514993892
C   0.3370048021  0.0669087690 -0.0215419183
C  -2.5460191957  0.1006953095 -0.0277410949
H  -2.3081192833  2.0704488660 -0.2872664167
H   0.1673836057  2.2424666245 -0.0709453686
H  -3.5796443896 -0.0643493368  0.1372157248
N   1.6571470320  0.0480378151 -0.1385659818
O   2.1029246550 -1.0155148348 -0.0316246177
O   2.2726167086  1.0632978107 -0.0208308937
C  -1.8691805868 -1.0582146790  0.1154767946
H  -2.5474027277 -1.8568146782  0.0472575267
C  -0.4851509801 -1.3641641574 -0.0791661048
H   0.1351431809 -2.2956823489  0.1950649936
14
Step 14  E=-436.4180772440  phi=134.745  theta=121.578
C  -1.7770524157  1.1775767758  0.0524677183
C  -0.3308128550  1.2330719396 -0.0467576309
C   0.3335778547  0.0602153809 -0.0253259530
C  -2.5447851528  0.1201275295 -0.0223831644
H  -2.2770579249  2.0775410401 -0.2631879437
H   0.1743484013  2.2304802517 -0.0694008076
H  -3.6036379357 -0.0395035893  0.1351799053
N   1.6635353002  0.0507602391 -0.1479882493
O   2.0969380572 -1.0182573007 -0.0430927305
O   2.2790533533  1.0660165720 -0.0206715439
C  -1.8559875622 -1.0670090538  0.1177434780
H  -2.5620794027 -1.8602737761  0.0548248386
C  -0.4850973292 -1.3613503878 -0.0869116925
H   0.1058607704 -2.2898664022  0.1784409937
14
Step 15  E=-436.4277671385  phi=134.352  theta=121.875
C  -1.7688674007  1.1812103266  0.0578187326
C  -0.3276204959  1.2390863666 -0.0417455692
C   0.3280696936  0.0526585605 -0.0295205665
C  -2.5436256878  0.1388164274 -0.0161672709
H  -2.2424101245  2.0833667043 -0.2336764820
H   0.1797139404  2.2136923853 -0.0681609700
H  -3.6223454001 -0.0093671071  0.1297376574
N   1.6703883855  0.0536930255 -0.1569377122
O   2.0916196809 -1.0220611976 -0.0547297059
O   2.2857546966  1.0692922592 -0.0206780617
C  -1.8423017993 -1.0769003363  0.1194367836
H  -2.5759294011 -1.8687106849  0.0642423329
C  -0.4848554055 -1.3570704291 -0.0939763727
H   0.0717142071 -2.2790244638  0.1583404161
14
Step 16  E=-436.4349453567  phi=133.982  theta=122.165
C  -1.7605594009  1.1864144455  0.0623266200
C  -0.3249706478  1.2449053478 -0.0364677579
C   0.3206542750  0.0444539961 -0.0341470558
C  -2.5426142968  0.1563730920 -0.0090995336
H  -2.2057923554  2.0896327194 -0.1995820743
H   0.1842837530  2.1939831014 -0.0671774300
H  -3.6333932138  0.0257841919  0.1209835821
N   1.6775447934  0.0567975062 -0.1653889408
O   2.0869969113 -1.0268785014 -0.0665446961
O   2.2927004908  1.0730647644 -0.0208546594
C  -1.8285837512 -1.0876062433  0.1205365954
H  -2.5873058191 -1.8805867659  0.0755001142
C  -0.4844754236 -1.3512613797 -0.1004006577
H   0.0345573895 -2.2651576422  0.1353059969
14
Step 17  E=-436.4392491170  phi=133.643  theta=122.448
C  -1.7520097560  1.1930894505  0.0661077765
C  -0.3228425431  1.2501616415 -0.0309339158
C   0.3115404999  0.0358166277 -0.0392213922
C  -2.5417548695  0.1725141476 -0.0012164266
H  -2.1690672417  2.0985347862 -0.1619061222
H   0.1891603792  2.1736994848 -0.0664193140
H  -3.6354726560  0.0653976305  0.1092349490
N   1.6848456927  0.0600085177 -0.1733181372
O   2.0830844693 -1.0326301497 -0.0785466599
O   2.2998652742  1.0772653665 -0.0212050291
C  -1.8152821970 -1.0988662171  0.1210425695
H  -2.5946576140 -1.8944390066  0.0885198114
C  -0.4840179143 -1.3438148640 -0.1062465508
H  -0.0033624763 -2.2509903138  0.1100314558
14
Step 18  E=-436.4415670962  phi=133.341  theta=122.721
C  -1.7431225268  1.2010757010  0.0692849581
C  -0.3212366349  1.2544869141 -0.0251590977
C   0.3009636433  0.0269563053 -0.0447528829
C  -2.5409741773  0.1870612682  0.0074211098
H  -2.1340922500  2.1123687683 -0.1216292362
H   0.1956340231  2.1553841389 -0.0658746110
H  -3.6283431480  0.1086907602  0.0949912996
N   1.6921432508  0.0632381960 -0.1807046664
O   2.0798854992 -1.0392092506 -0.0907438533
O   2.3072186266  1.0818176910 -0.0217324820
C  -1.8028189170 -1.1104293493  0.1209739976
H  -2.5967082994 -1.9090413711  0.1031450173
C  -0.4835379231 -1.3345989479 -0.1115887141
H  -0.0396388150 -2.2397146624  0.0832492049
14
Step 19  E=-436.4436977610  phi=133.083  theta=122.985
C  -1.7338542546  1.2102055122  0.0719716135
C  -0.3201552992  1.2575567484 -0.0191646000
C   0.2891778029  0.0180749334 -0.0507433255
C  -2.5401141868  0.1999322943  0.0167339339
H  -2.1023975813  2.1329003069 -0.0795318529
H   0.2049495450  2.1413172031 -0.0655393854
H  -3.6128603866  0.1547114948  0.0788857571
N   1.6993069633  0.0663819852 -0.1875324910
O   2.0773931998 -1.0464859953 -0.1031432302
O   2.3147255542  1.0866386943 -0.0224401086
C  -1.7915783026 -1.1220483946  0.1203681501
H  -2.5925544077 -1.9234756113  0.1191455864
C  -0.4830582490 -1.3235114954 -0.1164991819
H  -0.0721047073 -2.2343593108  0.0555473790
14
Step 20  E=-436.4469533122  phi=132.873  theta=123.236
C  -1.7242362717  1.2203644735  0.0742639461
C  -0.3195749170  1.2591434926 -0.0129798198
C   0.2764495313  0.0093655774 -0.0571866004
C  -2.5389277376  0.2111240454  0.0266316069
H  -2.0749067666  2.1606830455 -0.0361063989
H   0.2179802173  2.1329625054 -0.0653912129
H  -3.5910041993  0.2024208798  0.0616205778
N   1.7062277247  0.0693258963 -0.1937913034
O   2.0755928228 -1.0543136376 -0.1157498679
O   2.3223469771  1.0916397226 -0.0233309402
C  -1.7818985123 -1.1334785177  0.1192776949
H  -2.5817103121 -1.9371505045  0.1362309456
C  -0.4825419510 -1.3105586848 -0.1210315452
H  -0.0992802311 -2.2368572099  0.0271885626
14
Step 21  E=-436.4508899779  phi=132.715  theta=123.473
C  -1.7143772654  1.2315295225  0.0762467378
C  -0.3194204757  1.2591567420 -0.0066443371
C   0.2630529696  0.0010135855 -0.0640686103
C  -2.5370866990  0.2206884153  0.0370204641
H  -2.0518426863  2.1946930937  0.0083662913
H   0.2349328131  2.1305484817 -0.0653545650
H  -3.5658003196  0.2508054120  0.0438807615
N   1.7128198290  0.0719541073 -0.1994772431
O   2.0744635897 -1.0625349628 -0.1285664640
O   2.3300403289  1.0967276582 -0.0244080830
C  -1.7740608538 -1.1444781753  0.1177670835
H  -2.5641292023 -1.9498030784  0.1540698647
C  -0.4818850141 -1.2959223401 -0.1252153324
H  -0.1206273484 -2.2472519033 -0.0019402647
14
Step 22  E=-436.4537792092  phi=132.612  theta=123.693
C  -1.7044433920  1.2437606208  0.0780084178
C  -0.3195568194  1.2576510753 -0.0002085557
C   0.2492667268 -0.0068006933 -0.0713676001
C  -2.5342168552  0.2287060232  0.0478121588
H  -2.0328627342  2.2325319785  0.0536220037
H   0.2552446295  2.1330189128 -0.0652776125
H  -3.5409646538  0.2990002173  0.0262371975
N   1.7190213504  0.0741560161 -0.2045931884
O   2.0739804337 -1.0709885631 -0.1415929978
O   2.3377602058  1.1018061546 -0.0256748032
C  -1.7682756881 -1.1548096658  0.1159075108
H  -2.5402176346 -1.9615013628  0.1723165472
C  -0.4809430852 -1.2799696939 -0.1290655954
H  -0.1364421224 -2.2635844237 -0.0321837342
14
Step 23  E=-436.4543219465  phi=132.566  theta=123.895
C  -1.6946258947  1.2571546980  0.0796535526
C  -0.3198019029  1.2547982227  0.0062683809
C   0.2353721645 -0.0138988188 -0.0790548765
C  -2.5299696792  0.2352661787  0.0589293420
H  -2.0173178704  2.2710743362  0.0992409991
H   0.2777346606  2.1383847785 -0.0649368171
H  -3.5201340365  0.3463568004  0.0090849120
N   1.7247932562  0.0758320401 -0.2091486722
O   2.0741153918 -1.0795144518 -0.1548265503
O   2.3454591595  1.1067769503 -0.0271345792
C  -1.7646663808 -1.1642379492  0.1137704464
H  -2.5108429016 -1.9726528274  0.1906432881
C  -0.4795813573 -1.2631979943 -0.1325996300
H  -0.1474817047 -2.2825488063 -0.0638771005
14
Step 24  E=-436.4525009892  phi=132.580  theta=124.077
C  -1.6851101839  1.2717919016  0.0813050996
C  -0.3199545528  1.2508406683  0.0127229804
C   0.2216522249 -0.0201020581 -0.0870959945
C  -2.5241184917  0.2404624801  0.0703034558
H  -2.0044893208  2.3071873713  0.1445959074
H   0.3009147150  2.1442725173 -0.0640672861
H  -3.5058052099  0.3923661097 -0.0073194245
N   1.7301174889  0.0768978344 -0.2131595055
O   2.0748387061 -1.0879587233 -0.1682612968
O   2.3530886156  1.1115412804 -0.0287910815
C  -1.7632570532 -1.1725282228  0.1114206356
H  -2.4773124740 -1.9840059879  0.2087782293
C  -0.4777213537 -1.2461539578 -0.1358480160
H  -0.1545843199 -2.3004520931 -0.0971671955
14
Step 25  E=-436.4490063454  phi=132.654  theta=124.241
C  -1.6760550293  1.2876976649  0.0830976600
C  -0.3198241802  1.2460482702  0.0190924649
C   0.2083897371 -0.0252311055 -0.0954524308
C  -2.5166330449  0.2444048250  0.0818636688
H  -1.9937341411  2.3382392543  0.1889048779
H   0.3233023992  2.1484162670 -0.0624014143
H  -3.4984933263  0.4364310683 -0.0227078905
N   1.7349942681  0.0772866759 -0.2166472373
O   2.0761197358 -1.0961771175 -0.1818886545
O   2.3605994040  1.1160015326 -0.0306480260
C  -1.7639715761 -1.1794455419  0.1089103216
H  -2.4412883431 -1.9966112804  0.2265419335
C  -0.4753667191 -1.2293705843 -0.1388556922
H  -0.1584466383 -2.3139697105 -0.1319625155
14
Step 26  E=-436.4445865556  phi=132.790  theta=124.386
C  -1.6675825715  1.3048254665  0.0851671863
C  -0.3192524550  1.2406896130  0.0253189977
C   0.1958641727 -0.0291090035 -0.1040835787
C  -2.5076831272  0.2472342830  0.0935247847
H  -1.9845499339  2.3623446383  0.2313281956
H   0.3436420815  2.1489630302 -0.0596996982
H  -3.4966736823  0.4776473189 -0.0366389466
N   1.7394390676  0.0769505186 -0.2196385204
O   2.0779275683 -1.1040376436 -0.1956975378
O   2.3679431269  1.1200625364 -0.0327089969
C  -1.7666494377 -1.1847616914  0.1062766785
H  -2.4046010627 -2.0116872114  0.2438657783
C  -0.4726057173 -1.2133339491 -0.1416769403
H  -0.1595579986 -2.3205202466 -0.1679751522
14
Step 27  E=-436.4400762834  phi=132.989  theta=124.516
C  -1.6597749649  1.3230533408  0.0876412292
C  -0.3181262741  1.2350181472  0.0313526045
C   0.1843464970 -0.0315677966 -0.1129490768
C  -2.4975704573  0.2491242906  0.1051845373
H  -1.9765951063  2.3784339211  0.2710649882
H   0.3610148827  2.1446041548 -0.0557688975
H  -3.4975277415  0.5147754957 -0.0484501329
N   1.7434791506  0.0758599089 -0.2221644339
O   2.0802313943 -1.1114223280 -0.2096746929
O   2.3750732605  1.1236329004 -0.0349772734
C  -1.7710782143 -1.1882742606  0.1035439816
H  -2.3689669745 -2.0303479930  0.2607660378
C  -0.4695972228 -1.1984707897 -0.1443692785
H  -0.1582196638 -2.3183518754 -0.2047921031
14
Step 28  E=-436.4364439116  phi=133.250  theta=124.633
C  -1.6526732764  1.3421858683  0.0906309106
C  -0.3163845858  1.2292679207  0.0371531899
C   0.1740918425 -0.0324597254 -0.1220110509
C  -2.4866373220  0.2502661785  0.1167321231
H  -1.9696952279  2.3862501378  0.3074360053
H   0.3748717627  2.1346048524 -0.0504690716
H  -3.4979561422  0.5464138165 -0.0573435438
N   1.7471498304  0.0740030256 -0.2242598375
O   2.0830009485 -1.1182282436 -0.2238050874
O   2.3819451549  1.1266266618 -0.0374555365
C  -1.7770328205 -1.1898368666  0.1007308331
H  -2.3356819788 -2.0532221486  0.2772638708
C  -0.4665473870 -1.1851413888 -0.1469889168
H  -0.1545882276 -2.3064977660 -0.2419396792
14
Step 29  E=-436.4343762421  phi=133.574  theta=124.743
C  -1.6462765707  1.3619564469  0.0942239747
C  -0.3140203719  1.2236529974  0.0426920177
C   0.1653298174 -0.0316729384 -0.1312361131
C  -2.4751979051  0.2508499735  0.1280611082
H  -1.9638525694  2.3863398361  0.3399555458
H   0.3850412238  2.1187905742 -0.0437141510
H  -3.4953391175  0.5712370497 -0.0625253839
N   1.7504909005  0.0713845706 -0.2259626991
O   2.0862067729 -1.1243681407 -0.2380723418
O   2.3885167600  1.1289643628 -0.0401456195
C  -1.7843055262 -1.1893898382  0.0978603357
H  -2.3054230678 -2.0800999715  0.2932823382
C  -0.4636836656 -1.1736283387 -0.1495876765
H  -0.1487117126 -2.2847158063 -0.2789339051
14
Step 30  E=-436.4338059589  phi=133.958  theta=124.849
C  -1.6405415351  1.3820287828  0.0984781545
C  -0.3110801031  1.2183669492  0.0479528846
C   0.1582542556 -0.0291492356 -0.1405966028
C  -2.4635044232  0.2510497432  0.1390800383
H  -1.9592638362  2.3800576045  0.3683994712
H   0.3917359053  2.0975312986 -0.0354701873
H  -3.4879017051  0.5881832249 -0.0633225199
N   1.7535433670  0.0680247110 -0.2273134360
O   2.0898201658 -1.1297707990 -0.2524591533
O   2.3947495065  1.1305737424 -0.0430482954
C  -1.7927147091 -1.1869743159  0.0949679686
H  -2.2782721391 -2.1097938567  0.3085709948
C  -0.4612320333 -1.1641185749 -0.1522106410
H  -0.1405459736 -2.2534716942 -0.3153256102
14
Step 31  E=-436.4338708031  phi=134.402  theta=124.957
C  -1.6353842180  1.4020003751  0.1034151600
C  -0.3076617679  1.2135807204  0.0529329513
C   0.1530137266 -0.0249014942 -0.1500707594
C  -2.4517370607  0.2510152093  0.1497186692
H  -1.9563397072  2.3695574982  0.3928681900
H   0.3955665635  2.0717388103 -0.0257525749
H  -3.4748057817  0.5965589881 -0.0592504221
N   1.7563466446  0.0639580073 -0.2283543026
O   2.0938132066 -1.1343810894 -0.2669477112
O   2.4006088112  1.1313902723 -0.0461630935
C  -1.8020935862 -1.1827205046  0.0921024977
H  -2.2539455353 -2.1403095410  0.3226964590
C  -0.4594000822 -1.1566795745 -0.1548934062
H  -0.1299463726 -2.2139808133 -0.3507543717
14
Step 32  E=-436.4333445506  phi=134.899  theta=125.072
C  -1.6306858191  1.4214144688  0.1090173124
C  -0.3039110438  1.2094388436  0.0576429573
C   0.1497048100 -0.0190265502 -0.1596418189
C  -2.4400032167  0.2508669934  0.1599307701
H  -1.9557046485  2.3576970316  0.4138230389
H   0.3975580321  2.0428660533 -0.0146209108
H  -3.4561321846  0.5960906668 -0.0500441044
N   1.7589364577  0.0592323841 -0.2291288232
O   2.0981589089 -1.1381598114 -0.2815201025
O   2.4060643546  1.1313575216 -0.0494881505
C  -1.8122711397 -1.1768172652  0.0893203986
H  -2.2320798835 -2.1692431705  0.3351079932
C  -0.4583677849 -1.1512363264 -0.1576581201
H  -0.1166340180 -2.1682844356 -0.3850226168
14
Step 33  E=-436.4313396178  phi=135.445  theta=125.196
C  -1.6263053035  1.4397899559  0.1152309431
C  -0.3000138932  1.2060561461  0.0621063626
C   0.1483697439 -0.0117089080 -0.1692962983
C  -2.4283375151  0.2506929213  0.1696950218
H  -1.9581370798  2.3477445808  0.4320477710
H   0.3991413873  2.0128735640 -0.0021679462
H  -3.4328540124  0.5869525678 -0.0356698994
N   1.7613435477  0.0539080991 -0.2296812366
O   2.1028313414 -1.1410833290 -0.2961587016
O   2.4110902925  1.1304273687 -0.0530201133
C  -1.8230577980 -1.1694788198  0.0866777883
H  -2.2124399763 -2.1942063845  0.3452405570
C  -0.4582858989 -1.1475599124 -0.1605082841
H  -0.1001489335 -2.1192840303 -0.4181849599
14
Step 34  E=-436.4280054022  phi=136.032  theta=125.334
C  -1.6221018171  1.4566756924  0.1219811817
C  -0.2961822907  1.2035194511  0.0663569141
C   0.1489987030 -0.0032128028 -0.1790220139
C  -2.4167006990  0.2505452006  0.1790146931
H  -1.9644038862  2.3428085616  0.4484790150
H   0.4020731631  1.9841059148  0.0115014982
H  -3.4068264004  0.5697822691 -0.0163245026
N   1.7635931648  0.0480566760 -0.2300559657
O   2.1078058113 -1.1431430674 -0.3108465488
O   2.4156654490  1.1285600988 -0.0567540795
C  -1.8342408726 -1.1609202184  0.0842232979
H  -2.1950111087 -2.2131352564  0.3526021704
C  -0.4592779551 -1.1452821764 -0.1634247252
H  -0.0798310173 -2.0705935820 -0.4506142879
14
Step 35  E=-436.4247564022  phi=136.650  theta=125.488
C  -1.6179664311  1.4717217401  0.1291982292
C  -0.2926289403  1.2018993997  0.0704344497
C   0.1515357710  0.0061370031 -0.1888061996
C  -2.4049817301  0.2504412460  0.1879153930
H  -1.9749831043  2.3450624210  0.4639041179
H   0.4082211065  1.9590184645  0.0263021802
H  -3.3807444648  0.5456631885  0.0075894134
N   1.7657051777  0.0417595263 -0.2302971460
O   2.1130594246 -1.1443447802 -0.3255677110
O   2.4197735081  1.1257244822 -0.0606835675
C  -1.8455878351 -1.1513441893  0.0819934538
H  -2.1800022408 -2.2244519058  0.3568252928
C  -0.4614365680 -1.1439503470 -0.1663696842
H  -0.0549071242 -2.0260402601 -0.4829655220
14
Step 36  E=-436.4235887900  phi=137.290  theta=125.661
C  -1.6138542083  1.4847395637  0.1368451494
C  -0.2895295720  1.2012736692  0.0743796435
C   0.1558867540  0.0159822154 -0.1986337892
C  -2.3930141044  0.2503726885  0.1964389553
H  -1.9897668357  2.3550808044  0.4786452244
H   0.4191899484  1.9397460999  0.0422009578
H  -3.3579436478  0.5160292133  0.0355362211
N   1.7676946104  0.0351064432 -0.2304482886
O   2.1185716199 -1.1447078789 -0.3403076148
O   2.4234031988  1.1218978265 -0.0648004872
C  -1.8568535940 -1.1409357295  0.0800105597
H  -2.1678040455 -2.2271172310  0.3576907254
C  -0.4648041298 -1.1431206105 -0.1693073129
H  -0.0247778548 -1.9887817397 -0.5159445100
14
Step 37  E=-436.4257556202  phi=137.942  theta=125.859
C  -1.6098007277  1.4957173464  0.1449308374
C  -0.2869800456  1.2017531559  0.0782294858
C   0.1619267988  0.0259605370 -0.2084857011
C  -2.3806212871  0.2503256453  0.2046320276
H  -2.0079156343  2.3716795193  0.4924234768
H   0.4358633246  1.9276255183  0.0592287699
H  -3.3418710300  0.4824519114  0.0669878429
N   1.7695723683  0.0281939138 -0.2305521392
O   2.1243249728 -1.1442647650 -0.3550533099
O   2.4265483923  1.1170661088 -0.0690950895
C  -1.8677884827 -1.1298595736  0.0782820380
H  -2.1589369983 -2.2206314483  0.3551365946
C  -0.4693386207 -1.1424571108 -0.1722386178
H   0.0105168510 -1.9603843992 -0.5498905438
14
Step 38  E=-436.4308587111  phi=138.595  theta=126.087
C  -1.6059127312  1.5047817182  0.1535003204
C  -0.2849655478  1.2034939267  0.0820152670
C   0.1695063882  0.0357328586 -0.2183369156
C  -2.3676967045  0.2503079218  0.2125321784
H  -2.0279725865  2.3923653251  0.5044945381
H   0.4580587507  1.9228930878  0.0774531151
H  -3.3351614092  0.4463475213  0.1015981940
N   1.7713458364  0.0211237122 -0.2306506949
O   2.1303052600 -1.1430605851 -0.3697936358
O   2.4292079063  1.1112242032 -0.0735558781
C  -1.8781447082 -1.1182570592  0.0768000009
H  -2.1540084564 -2.2050288281  0.3492608839
C  -0.4748866264 -1.1417802928 -0.1752307135
H   0.0499192655 -1.9404680694 -0.5844150077
14
Step 39  E=-436.4370534030  phi=139.240  theta=126.349
C  -1.6023381484  1.5121317280  0.1626111264
C  -0.2833586794  1.2066815645  0.0857629673
C   0.1784554445  0.0450049542 -0.2281543364
C  -2.3542928939  0.2503682393  0.2201607437
H  -2.0481710122  2.4140999477  0.5139480064
H   0.4845020644  1.9247322489  0.0969181652
H  -3.3386044444  0.4087648754  0.1392975467
N   1.7730191192  0.0140016520 -0.2307852493
O   2.1365018188 -1.1411529044 -0.3845194170
O   2.4313855505  1.1043760195 -0.0781694828
C  -1.8876807159 -1.1062408582  0.0755403657
H  -2.1536855273 -2.1808929842  0.3403226671
C  -0.4811893297 -1.1410392137 -0.1784172502
H   0.0913777579 -1.9271820680 -0.6183875233
14
Step 40  E=-436.4421059035  phi=139.868  theta=126.653
C  -1.5992307456  1.5179792118  0.1723108518
C  -0.2819477488  1.2114927431  0.0894939619
C   0.1885857903  0.0535431308 -0.2378946945
C  -2.3406645788  0.2505924151  0.2275311704
H  -2.0667690189  2.4339842722  0.5199881812
H   0.5131427879  1.9316336810  0.1175871195
H  -3.3506403503  0.3704196930  0.1801972948
N   1.7745931060  0.0069360301 -0.2309963828
O   2.1429074556 -1.1386113694 -0.3992236342
O   2.4330903129  1.0965348569 -0.0829205517
C  -1.8961641837 -1.0938872868  0.0744615928
H  -2.1586833676 -2.1493965529  0.3287428605
C  -0.4879236544 -1.1402422922 -0.1819691220
H   0.1322737655 -1.9181240189 -0.6502624476
14
Step 41  E=-436.4446148268  phi=140.471  theta=127.001
C  -1.5967215661  1.5225118134  0.1826241146
C  -0.2804798935  1.2180539902  0.0932241162
C   0.1996933860  0.0611834796 -0.2475031035
C  -2.3272283473  0.2510798382  0.2346687574
H  -2.0822919248  2.4496734597  0.5220979482
H   0.5416323676  1.9418556715  0.1393144508
H  -3.3678088819  0.3319327266  0.2243515842
N   1.7760655014  0.0000352615 -0.2313239209
O   2.1495181622 -1.1355171092 -0.4139016023
O   2.4343367643  1.0877241241 -0.0877918243
C  -1.9033743977 -1.0812279658  0.0735039246
H  -2.1697638846 -2.1123424501  0.3150986382
C  -0.4947535380 -1.1393987299 -0.1860574043
H   0.1699674234 -1.9111019308 -0.6784902905
14
Step 42  E=-436.4446693554  phi=141.043  theta=127.396
C  -1.5949008360  1.5258760983  0.1935483749
C  -0.2787016542  1.2264154322  0.0969617393
C   0.2115606976  0.0678341293 -0.2569127583
C  -2.3144646757  0.2519206470  0.2416266899
H  -2.0936624936  2.4595513513  0.5200930167
H   0.5677303445  1.9537906464  0.1618563419
H  -3.3858516832  0.2940548411  0.2715542490
N   1.7774306170 -0.0065951013 -0.2318067750
O   2.1563318050 -1.1319616896 -0.4285513099
O   2.4351439970  1.0779783336 -0.0927639038
C  -1.9091044917 -1.0682463945  0.0725907699
H  -2.1877334296 -2.0721466241  0.3000971592
C  -0.5013683460 -1.1384927895 -0.1908275398
H   0.2021744191 -1.9044911901 -0.7017993750
14
Step 43  E=-436.4436601381  phi=141.577  theta=127.837
C  -1.5938081042  1.5281716372  0.2050546513
C  -0.2763864226  1.2365438762  0.1007058225
C   0.2239600643  0.0734711246 -0.2660459571
C  -2.3028221167  0.2531876387  0.2484888485
H  -2.1002564599  2.4627738091  0.5141148194
H   0.5895599465  1.9661559990  0.1849021372
H  -3.4007800846  0.2577275265  0.3212871320
N   1.7786796646 -0.0128566293 -0.2324829090