&FCI NORB=8,NELEC=0,MS2=0
ORBSYM=1,1,1,1,
ISYM=1,
/
      4.73252223062827770406e-01 	 1 1 1 1
     -3.60826250357570901123e-03 	 1 1 2 1
      2.13588238076650449582e-01 	 1 1 2 2
     -5.07669401419038185397e-02 	 1 1 3 1
     -2.16332004064747965288e-02 	 1 1 3 2
      3.27958454594355408585e-01 	 1 1 3 3
      7.63383211158366603577e-03 	 1 1 4 1
      4.53227324750022503297e-03 	 1 1 4 2
     -5.63667221054265179560e-04 	 1 1 4 3
      1.11455979822663586720e-01 	 1 1 4 4
     -1.75827375026386401036e-02 	 1 1 5 1
     -2.46762210066491204097e-02 	 1 1 5 2
      3.71097796846411084187e-03 	 1 1 5 3
      5.80694754825163183057e-04 	 1 1 5 4
      2.63834816185812004452e-01 	 1 1 5 5
     -3.71378422889241319171e-04 	 1 1 6 1
      2.22949152116605508502e-04 	 1 1 6 2
      3.70536548952939571305e-03 	 1 1 6 3
      3.68815144385935874544e-03 	 1 1 6 4
     -8.43089221067158146872e-03 	 1 1 6 5
      1.24858713915122904181e-01 	 1 1 6 6
      5.97846491828695689175e-02 	 1 1 7 1
      1.61664801012750755649e-02 	 1 1 7 2
      5.72036780411848324451e-03 	 1 1 7 3
      1.47449940675237851570e-03 	 1 1 7 4
      3.85601453264399970933e-03 	 1 1 7 5
     -6.42641681456647146514e-03 	 1 1 7 6
      3.55140864153206725629e-01 	 1 1 7 7
     -1.11254523066761611128e-02 	 1 1 8 1
      5.37559097094221765428e-03 	 1 1 8 2
     -9.71127189270663501199e-04 	 1 1 8 3
     -8.49479979848996244463e-03 	 1 1 8 4
     -1.16603710246329945327e-02 	 1 1 8 5
     -4.60019306990529751322e-03 	 1 1 8 6
     -3.01799676808351584681e-03 	 1 1 8 7
      1.77791998929668071394e-01 	 1 1 8 8
     -3.60826250357569166399e-03 	 2 1 1 1
      1.84775220584231262763e-03 	 2 1 2 1
      9.93757162002855201632e-04 	 2 1 2 2
     -2.70200257186003892952e-04 	 2 1 3 1
      1.85575002848833623369e-03 	 2 1 3 2
      3.38655640455078673495e-03 	 2 1 3 3
     -4.44360618195151896564e-04 	 2 1 4 1
     -9.90154037348830225879e-04 	 2 1 4 2
     -3.38516632470767188292e-04 	 2 1 4 3
     -1.81665744372552697555e-03 	 2 1 4 4
      4.49555205456740950010e-04 	 2 1 5 1
      2.63225262654134080018e-03 	 2 1 5 2
      7.07997180420439687666e-04 	 2 1 5 3
      7.64532167176224392849e-05 	 2 1 5 4
      4.46401643782054404624e-03 	 2 1 5 5
     -4.39174704305920896637e-04 	 2 1 6 1
     -2.51699056022300002560e-04 	 2 1 6 2
     -2.58809636752732662255e-04 	 2 1 6 3
      1.56598088715452152253e-03 	 2 1 6 4
      3.06603991701129871376e-05 	 2 1 6 5
      1.40757020556168781222e-03 	 2 1 6 6
     -3.54598105141669807210e-04 	 2 1 7 1
     -1.84566170654083035879e-03 	 2 1 7 2
      9.08650524068288761165e-04 	 2 1 7 3
      2.18854141634025460041e-04 	 2 1 7 4
     -1.43671189644871822970e-03 	 2 1 7 5
      5.01903321360624900954e-04 	 2 1 7 6
     -2.09136893338057522004e-03 	 2 1 7 7
      8.47874773744253218931e-04 	 2 1 8 1
     -1.80012818383855078804e-05 	 2 1 8 2
      3.88416222668437442767e-04 	 2 1 8 3
      4.56282806393210256003e-04 	 2 1 8 4
      1.52228851628502591213e-03 	 2 1 8 5
     -4.42440040618858319334e-04 	 2 1 8 6
     -6.58044891788328801174e-05 	 2 1 8 7
     -3.77529041212127346172e-03 	 2 1 8 8
      2.13588238076650394071e-01 	 2 2 1 1
      9.93757162002880788804e-04 	 2 2 2 1
      3.37442226340527839934e-01 	 2 2 2 2
      1.03088026743393054718e-03 	 2 2 3 1
     -1.43029975852120294633e-02 	 2 2 3 2
      1.87549832294406831901e-01 	 2 2 3 3
     -1.10374632567072678176e-03 	 2 2 4 1
      9.61522418688989626012e-03 	 2 2 4 2
     -3.20088866739932443109e-03 	 2 2 4 3
      1.58488585278284299651e-01 	 2 2 4 4
     -2.90874871708916935692e-03 	 2 2 5 1
     -1.48272850329680370984e-02 	 2 2 5 2
      5.40181406193722055131e-03 	 2 2 5 3
     -1.26365053626399052172e-03 	 2 2 5 4
      2.58265290227402577461e-01 	 2 2 5 5
     -1.35525934004416745426e-03 	 2 2 6 1
      1.44736524041657980966e-03 	 2 2 6 2
     -2.75851231944557228129e-04 	 2 2 6 3
      1.13226670101912122585e-02 	 2 2 6 4
     -3.10204532008056307196e-03 	 2 2 6 5
      1.66568421885776973834e-01 	 2 2 6 6
      8.37752477286086288943e-04 	 2 2 7 1
      6.26896912886691203698e-03 	 2 2 7 2
      2.37253301274720001732e-04 	 2 2 7 3
      2.08667909455978852276e-03 	 2 2 7 4
     -2.38947170431832046217e-03 	 2 2 7 5
     -8.73240359939748966855e-05 	 2 2 7 6
      2.07057779341611070123e-01 	 2 2 7 7
     -1.27914431620748886634e-03 	 2 2 8 1
      1.16931045357987779126e-02 	 2 2 8 2
      2.99945001238586085937e-04 	 2 2 8 3
     -5.16053262502212586188e-03 	 2 2 8 4
     -1.24780670090051896276e-02 	 2 2 8 5
      8.05315900648610185839e-04 	 2 2 8 6
      9.42513243153789441377e-05 	 2 2 8 7
      2.26095752757206114314e-01 	 2 2 8 8
     -5.07669401419037769063e-02 	 3 1 1 1
     -2.70200257186011482367e-04 	 3 1 2 1
      1.03088026743395570067e-03 	 3 1 2 2
      2.20643204642648298186e-02 	 3 1 3 1
      5.52033397876309974567e-03 	 3 1 3 2
     -5.81546493043891832286e-02 	 3 1 3 3
     -1.63588731024183822726e-03 	 3 1 4 1
      6.60174572291402877826e-04 	 3 1 4 2
      2.39278874693561987696e-05 	 3 1 4 3
      3.99952589948366771244e-02 	 3 1 4 4
      3.87987090529932389382e-03 	 3 1 5 1
      4.91877012006516206588e-03 	 3 1 5 2
     -4.27542175656580258035e-04 	 3 1 5 3
     -1.03820301399553012456e-03 	 3 1 5 4
     -3.37879880355695808372e-03 	 3 1 5 5
     -7.63654207719326552119e-05 	 3 1 6 1
     -5.25175445518826378849e-04 	 3 1 6 2
     -1.95188831477857965141e-03 	 3 1 6 3
     -2.97517568975201596171e-03 	 3 1 6 4
      5.00619475138176306742e-04 	 3 1 6 5
      3.67371781384402268378e-02 	 3 1 6 6
     -1.79338607168990707419e-02 	 3 1 7 1
     -3.36179359887497399006e-03 	 3 1 7 2
     -5.44732280280958106738e-03 	 3 1 7 3
     -4.46672905178239771761e-04 	 3 1 7 4
     -6.73264466382978918335e-04 	 3 1 7 5
      1.87278932095011796562e-03 	 3 1 7 6
     -4.67552378349904984578e-02 	 3 1 7 7
      2.86956368937309105188e-03 	 3 1 8 1
      5.22013973833350755638e-04 	 3 1 8 2
      1.53389138805120456809e-03 	 3 1 8 3
     -1.39403922915814094258e-03 	 3 1 8 4
      2.27950033384100156017e-03 	 3 1 8 5
      1.34482365671810847815e-03 	 3 1 8 6
      3.34585379881663109308e-04 	 3 1 8 7
      2.62014807735823120061e-02 	 3 1 8 8
     -2.16332004064747826511e-02 	 3 2 1 1
      1.85575002848833449896e-03 	 3 2 2 1
     -1.43029975852120849744e-02 	 3 2 2 2
      5.52033397876310755192e-03 	 3 2 3 1
      1.06156068904554590215e-02 	 3 2 3 2
     -2.88493548478937489321e-02 	 3 2 3 3
     -8.95698554532327068795e-04 	 3 2 4 1
     -3.36499998917804592560e-03 	 3 2 4 2
     -1.15491043442322817089e-03 	 3 2 4 3
      1.19723099652676370774e-02 	 3 2 4 4
      3.36190608488794650741e-03 	 3 2 5 1
      1.20868651559382020433e-02 	 3 2 5 2
      1.99038843625298170897e-03 	 3 2 5 3
      1.82001752219250180443e-04 	 3 2 5 4
     -6.23940996402921107394e-03 	 3 2 5 5
     -3.84758090422949419925e-04 	 3 2 6 1
     -8.93037486027878921538e-04 	 3 2 6 2
     -1.38219577495814443906e-03 	 3 2 6 3
      3.40144461670065147846e-03 	 3 2 6 4
      1.72141809618693163338e-03 	 3 2 6 5
      2.04951294275831225056e-02 	 3 2 6 6
     -6.39520916569983818856e-03 	 3 2 7 1
     -5.63533775949618710721e-03 	 3 2 7 2
      5.84604817476185338251e-04 	 3 2 7 3
      3.00952305187789320804e-04 	 3 2 7 4
     -3.13350839359481788890e-03 	 3 2 7 5
      1.60435222571961148309e-03 	 3 2 7 6
     -2.39439221353160980321e-02 	 3 2 7 7
      2.52264528349211867783e-03 	 3 2 8 1
     -1.18698246414371917298e-03 	 3 2 8 2
      1.60610430417569387262e-03 	 3 2 8 3
      1.18683130950679080994e-03 	 3 2 8 4
      5.86985281495449630340e-03 	 3 2 8 5
      1.79362139623213457697e-04 	 3 2 8 6
      3.19507419746930696955e-04 	 3 2 8 7
     -7.03871314022300100660e-03 	 3 2 8 8
      3.27958454594355020006e-01 	 3 3 1 1
      3.38655640455081362317e-03 	 3 3 2 1
      1.87549832294406887412e-01 	 3 3 2 2
     -5.81546493043891554731e-02 	 3 3 3 1
     -2.88493548478937662793e-02 	 3 3 3 2
      5.52084543353259515897e-01 	 3 3 3 3
      2.68230602682153779909e-03 	 3 3 4 1
     -1.60993652368163729649e-04 	 3 3 4 2
      3.64514343151070303178e-03 	 3 3 4 3
      7.80596787123990498714e-02 	 3 3 4 4
     -7.68406258679913464066e-03 	 3 3 5 1
     -1.26957794471072738657e-02 	 3 3 5 2
     -1.51065439109246456642e-03 	 3 3 5 3
      1.49973658815474300207e-03 	 3 3 5 4
      2.17628046172739564312e-01 	 3 3 5 5
     -3.63928830857300055629e-03 	 3 3 6 1
      3.14701183198576989707e-04 	 3 3 6 2
      9.99850264451010092848e-03 	 3 3 6 3
      1.02033837903259781699e-02 	 3 3 6 4
     -6.05945862032175770751e-03 	 3 3 6 5
      1.03917400330930886909e-01 	 3 3 6 6
      3.93991391912310306989e-02 	 3 3 7 1
      8.84242888019771272612e-03 	 3 3 7 2
      2.01033150432176760392e-02 	 3 3 7 3
      1.81522678651866646408e-03 	 3 3 7 4
      1.13139657215771335941e-05 	 3 3 7 5
     -4.02351694440183493134e-03 	 3 3 7 6
      2.92427290008173690339e-01 	 3 3 7 7
     -2.57085137435815284934e-03 	 3 3 8 1
      3.76642613071580777129e-03 	 3 3 8 2
     -5.53145824813980335755e-03 	 3 3 8 3
     -4.12692829923206640219e-03 	 3 3 8 4
     -4.85105700000107789571e-03 	 3 3 8 5
     -6.25766881970140579489e-03 	 3 3 8 6
     -2.66221716204582004722e-03 	 3 3 8 7
      1.37376123567222313548e-01 	 3 3 8 8
      7.63383211158364088228e-03 	 4 1 1 1
     -4.44360618195160895442e-04 	 4 1 2 1
     -1.10374632567070162827e-03 	 4 1 2 2
     -1.63588731024184343144e-03 	 4 1 3 1
     -8.95698554532322948826e-04 	 4 1 3 2
      2.68230602682156035049e-03 	 4 1 3 3
      2.11463201534563749115e-03 	 4 1 4 1
      3.84897367350591390785e-04 	 4 1 4 2
      9.77999424316615927066e-04 	 4 1 4 3
      3.54422036147686563695e-03 	 4 1 4 4
     -9.00869409915338540534e-04 	 4 1 5 1
     -1.15503972930657786838e-03 	 4 1 5 2
     -3.62800108043339882089e-04 	 4 1 5 3
      1.40992276971418342615e-04 	 4 1 5 4
     -1.05248701178118882552e-03 	 4 1 5 5
      3.33590311422609037215e-04 	 4 1 6 1
      2.15492817721463664768e-04 	 4 1 6 2
      3.21438384331749267987e-04 	 4 1 6 3
     -4.32698260510116919971e-04 	 4 1 6 4
      2.43695773137299451401e-04 	 4 1 6 5
     -4.38795048522487487336e-03 	 4 1 6 6
      1.96747193373265211180e-03 	 4 1 7 1
      7.44653689369076539871e-04 	 4 1 7 2
     -6.44834752886514254132e-05 	 4 1 7 3
     -8.19505085422146672958e-04 	 4 1 7 4
      5.95866332639113103001e-04 	 4 1 7 5
     -5.34017163719650595627e-04 	 4 1 7 6
      5.15500477083280679580e-03 	 4 1 7 7
     -1.20717721698559597374e-03 	 4 1 8 1
     -6.19738801431690916697e-05 	 4 1 8 2
     -4.74248954046124738485e-04 	 4 1 8 3
     -5.16406976579794640449e-04 	 4 1 8 4
     -1.05642689478796492596e-03 	 4 1 8 5
      5.07037419272232713421e-04 	 4 1 8 6
      1.61986705432721247435e-04 	 4 1 8 7
     -3.57807930778579344824e-04 	 4 1 8 8
      4.53227324750024931910e-03 	 4 2 1 1
     -9.90154037348832177443e-04 	 4 2 2 1
      9.61522418688988411706e-03 	 4 2 2 2
      6.60174572291410250401e-04 	 4 2 3 1
     -3.36499998917804635928e-03 	 4 2 3 2
     -1.60993652368190617863e-04 	 4 2 3 3
      3.84897367350595510753e-04 	 4 2 4 1
      3.37896197578196888500e-03 	 4 2 4 2
      8.20669681401888146711e-04 	 4 2 4 3
      9.03635016869715201882e-03 	 4 2 4 4
     -1.33342866475609587301e-03 	 4 2 5 1
     -4.13650953313962101154e-03 	 4 2 5 2
     -6.57019791740653079370e-04 	 4 2 5 3
      3.49464795740716714038e-04 	 4 2 5 4
      2.89310730584437219431e-03 	 4 2 5 5
      4.93013584348563072002e-04 	 4 2 6 1
      1.35852761850879474349e-03 	 4 2 6 2
      7.22724743982171660174e-04 	 4 2 6 3
     -2.03069745530031885855e-03 	 4 2 6 4
     -3.26199703384546678062e-06 	 4 2 6 5
     -1.68282079896124353753e-03 	 4 2 6 6
      4.41411353596309844610e-05 	 4 2 7 1
      2.20139669314953602755e-03 	 4 2 7 2
     -1.14499913761710136843e-03 	 4 2 7 3
     -3.87234176756673235172e-04 	 4 2 7 4
      1.51630798063662631386e-03 	 4 2 7 5
     -8.10199963391368253342e-04 	 4 2 7 6
      4.20911274941240809433e-03 	 4 2 7 7
     -1.15505348528667181086e-03 	 4 2 8 1
      1.24870944313632903713e-03 	 4 2 8 2
     -4.61654854240094712249e-04 	 4 2 8 3
     -1.61908566668994124277e-03 	 4 2 8 4
     -2.60535920013419243849e-03 	 4 2 8 5
      7.61875164993299587232e-04 	 4 2 8 6
      1.13332404071679529857e-05 	 4 2 8 7
      1.23564619202530291686e-02 	 4 2 8 8
     -5.63667221054266914283e-04 	 4 3 1 1
     -3.38516632470764260946e-04 	 4 3 2 1
     -3.20088866739934091096e-03 	 4 3 2 2
      2.39278874693597495317e-05 	 4 3 3 1
     -1.15491043442322556881e-03 	 4 3 3 2
      3.64514343151069002136e-03 	 4 3 3 3
      9.77999424316620697556e-04 	 4 3 4 1
      8.20669681401886845669e-04 	 4 3 4 2
      1.37688045513740500887e-03 	 4 3 4 3
      5.73702265498184441062e-03 	 4 3 4 4
     -4.60140990667306539180e-04 	 4 3 5 1
     -7.90085904669511986977e-04 	 4 3 5 2
     -6.16820520205119343995e-04 	 4 3 5 3
     -9.24387332823035554573e-05 	 4 3 5 4
     -2.41004924524250516843e-03 	 4 3 5 5
      2.14925605638947582162e-04 	 4 3 6 1
      4.48876124590238262391e-04 	 4 3 6 2
      6.87913590087165286412e-04 	 4 3 6 3
     -1.21873246086942133362e-03 	 4 3 6 4
      5.31447986619674165752e-05 	 4 3 6 5
     -3.93337902151184924497e-04 	 4 3 6 6
     -4.05788724966097704393e-04 	 4 3 7 1
      4.26259035179125304969e-04 	 4 3 7 2
     -4.71371754243347733902e-04 	 4 3 7 3
     -4.33990379724055351171e-04 	 4 3 7 4
      6.48279962919950350671e-04 	 4 3 7 5
      1.30914429713907131021e-04 	 4 3 7 6
     -1.88579786356057139615e-03 	 4 3 7 7
     -4.83143791052603364337e-04 	 4 3 8 1
     -2.52925271929673557226e-05 	 4 3 8 2
     -3.04914095889535069744e-04 	 4 3 8 3
     -4.96602399960153931095e-04 	 4 3 8 4
     -5.57705206627182839725e-04 	 4 3 8 5
      2.81307317759760787141e-04 	 4 3 8 6
     -3.33268931527060967485e-05 	 4 3 8 7
      1.09426223453327337021e-03 	 4 3 8 8
      1.11455979822663281409e-01 	 4 4 1 1
     -1.81665744372555689953e-03 	 4 4 2 1
      1.58488585278284715985e-01 	 4 4 2 2
      3.99952589948366979411e-02 	 4 4 3 1
      1.19723099652676318733e-02 	 4 4 3 2
      7.80596787123990776269e-02 	 4 4 3 3
      3.54422036147689079044e-03 	 4 4 4 1
      9.03635016869707222154e-03 	 4 4 4 2
      5.73702265498181925713e-03 	 4 4 4 3
      4.54552002178007619193e-01 	 4 4 4 4
      3.79716185389863481250e-03 	 4 4 5 1
      1.93310261445970507643e-02 	 4 4 5 2
     -3.96368424689421544604e-03 	 4 4 5 3
      1.32155550953636565653e-03 	 4 4 5 4
      1.65899078237074754094e-01 	 4 4 5 5
      3.98698281543648051783e-03 	 4 4 6 1
     -2.16334965911870380148e-03 	 4 4 6 2
     -8.58380911109913593768e-04 	 4 4 6 3
     -1.10193310675289583844e-02 	 4 4 6 4
      1.17423238781944570819e-03 	 4 4 6 5
      3.14481517732268622822e-01 	 4 4 6 6
     -4.62153242954513737706e-02 	 4 4 7 1
     -1.05138884088123024663e-02 	 4 4 7 2
     -1.48108270047798418201e-02 	 4 4 7 3
     -1.98366049461671817983e-03 	 4 4 7 4
     -2.44451716156244853312e-03 	 4 4 7 5
      3.28246635436179722695e-03 	 4 4 7 6
      3.36864666056922446025e-02 	 4 4 7 7
      1.91385955485089088654e-03 	 4 4 8 1
      1.43291694715170429657e-03 	 4 4 8 2
      1.68481147488504343253e-03 	 4 4 8 3
     -1.68680311586976855454e-02 	 4 4 8 4
      6.22917867501184344126e-03 	 4 4 8 5
      9.71964210048410770515e-03 	 4 4 8 6
      1.48336943732332946638e-03 	 4 4 8 7
      2.59364743510521800207e-01 	 4 4 8 8
     -1.75827375026386539814e-02 	 5 1 1 1
      4.49555205456725391708e-04 	 5 1 2 1
     -2.90874871708916632115e-03 	 5 1 2 2
      3.87987090529931348548e-03 	 5 1 3 1
      3.36190608488796168624e-03 	 5 1 3 2
     -7.68406258679914591636e-03 	 5 1 3 3
     -9.00869409915334637406e-04 	 5 1 4 1
     -1.33342866475612341175e-03 	 5 1 4 2
     -4.60140990667311851770e-04 	 5 1 4 3
      3.79716185389869726255e-03 	 5 1 4 4
      6.39073082666150645709e-03 	 5 1 5 1
      6.15730169787641074680e-03 	 5 1 5 2
      1.23789390371253265125e-03 	 5 1 5 3
     -6.11657026681992703997e-04 	 5 1 5 4
     -6.37489433696425411568e-03 	 5 1 5 5
     -8.75267935977673506784e-04 	 5 1 6 1
     -4.35385792211412619816e-04 	 5 1 6 2
     -8.65298276277060279121e-04 	 5 1 6 3
      1.37681370771512907349e-03 	 5 1 6 4
      3.01449382522707431693e-04 	 5 1 6 5
      1.22502945754705272474e-02 	 5 1 6 6
     -5.01576315010617609230e-03 	 5 1 7 1
     -2.81170890603977836203e-03 	 5 1 7 2
      4.12977042933732659685e-04 	 5 1 7 3
      2.17261286689173518894e-04 	 5 1 7 4
     -2.32152739003086815844e-03 	 5 1 7 5
      9.20283148667106441765e-04 	 5 1 7 6
     -1.41440278554646678422e-02 	 5 1 7 7
      2.50881484327591290986e-03 	 5 1 8 1
      2.74337018644584397335e-04 	 5 1 8 2
      8.74687113399841352328e-04 	 5 1 8 3
      4.34102553405891274530e-04 	 5 1 8 4
      4.08629623377439101656e-03 	 5 1 8 5
     -4.89269448955859977135e-04 	 5 1 8 6
     -1.93552120850598726679e-04 	 5 1 8 7
     -3.02253269230390612596e-03 	 5 1 8 8
     -2.46762210066491655125e-02 	 5 2 1 1
      2.63225262654135034115e-03 	 5 2 2 1
     -1.48272850329680301595e-02 	 5 2 2 2
      4.91877012006521844439e-03 	 5 2 3 1
      1.20868651559381881655e-02 	 5 2 3 2
     -1.26957794471073519282e-02 	 5 2 3 3
     -1.15503972930658654200e-03 	 5 2 4 1
     -4.13650953313956983720e-03 	 5 2 4 2
     -7.90085904669505373343e-04 	 5 2 4 3
      1.93310261445969917837e-02 	 5 2 4 4
      6.15730169787645584961e-03 	 5 2 5 1
      2.30436182197446583209e-02 	 5 2 5 2
      2.18769490449649117031e-03 	 5 2 5 3
      4.57588331128342665124e-04 	 5 2 5 4
     -8.54277127526476692809e-03 	 5 2 5 5
     -5.27267805697307690750e-04 	 5 2 6 1
     -8.70182000199968457357e-04 	 5 2 6 2
     -9.52534914709403162866e-04 	 5 2 6 3
      6.16135188132396934002e-03 	 5 2 6 4
      2.37437739358538129827e-03 	 5 2 6 5
      3.27248866715098979396e-02 	 5 2 6 6
     -8.94949042402539383934e-03 	 5 2 7 1
     -8.64865991395372991912e-03 	 5 2 7 2
      2.25958411179746562758e-03 	 5 2 7 3
      5.48185036016169725814e-04 	 5 2 7 4
     -5.45121062421287209954e-03 	 5 2 7 5
      1.91822322494977835598e-03 	 5 2 7 6
     -2.48796547402090201251e-02 	 5 2 7 7
      3.85623794858994855053e-03 	 5 2 8 1
     -1.80525806045843438888e-03 	 5 2 8 2
      1.94357073257044239180e-03 	 5 2 8 3
      7.48794316927943199441e-04 	 5 2 8 4
      9.27692685502704353362e-03 	 5 2 8 5
      4.53164019513523975459e-04 	 5 2 8 6
      9.75645161358260981990e-05 	 5 2 8 7
     -8.37108588555166878431e-03 	 5 2 8 8
      3.71097796846414900579e-03 	 5 3 1 1
      7.07997180420435784538e-04 	 5 3 2 1
      5.40181406193724136799e-03 	 5 3 2 2
     -4.27542175656577547530e-04 	 5 3 3 1
      1.99038843625297390272e-03 	 5 3 3 2
     -1.51065439109245025495e-03 	 5 3 3 3
     -3.62800108043333322666e-04 	 5 3 4 1
     -6.57019791740664680334e-04 	 5 3 4 2
     -6.16820520205121403980e-04 	 5 3 4 3
     -3.96368424689419376200e-03 	 5 3 4 4
      1.23789390371255888894e-03 	 5 3 5 1
      2.18769490449646601682e-03 	 5 3 5 2
      2.85530278001608133973e-03 	 5 3 5 3
     -1.82845016215278416589e-04 	 5 3 5 4
      4.46642209969127200464e-03 	 5 3 5 5
     -6.69589118526884110628e-04 	 5 3 6 1
     -8.19515490344829860723e-05 	 5 3 6 2
     -4.34659974086577078570e-04 	 5 3 6 3
      2.12287696172221108590e-03 	 5 3 6 4
     -2.16071091152825303693e-04 	 5 3 6 5
      1.62781750252357628947e-03 	 5 3 6 6
      1.12173719749390689987e-03 	 5 3 7 1
     -4.17911621246090355178e-04 	 5 3 7 2
      9.69800496905419092721e-04 	 5 3 7 3
      3.31413777863312410815e-04 	 5 3 7 4
     -1.64601065531480160627e-03 	 5 3 7 5
      3.51417101610575991627e-04 	 5 3 7 6
      4.92786942898901583754e-03 	 5 3 7 7
      6.87161423363318621220e-04 	 5 3 8 1
      4.56911047083369053698e-04 	 5 3 8 2
      6.75495065570129210770e-04 	 5 3 8 3
      8.43675955999366667315e-05 	 5 3 8 4
      1.47119590901505789896e-03 	 5 3 8 5
     -5.60500958595343962143e-04 	 5 3 8 6
      2.58509787077435291896e-05 	 5 3 8 7
     -2.24601635679010612490e-03 	 5 3 8 8
      5.80694754825191805994e-04 	 5 4 1 1
      7.64532167176095372790e-05 	 5 4 2 1
     -1.26365053626398054706e-03 	 5 4 2 2
     -1.03820301399554790547e-03 	 5 4 3 1
      1.82001752219252132007e-04 	 5 4 3 2
      1.49973658815479114065e-03 	 5 4 3 3
      1.40992276971419453922e-04 	 5 4 4 1
      3.49464795740700938896e-04 	 5 4 4 2
     -9.24387332823079193710e-05 	 5 4 4 3
      1.32155550953634744193e-03 	 5 4 4 4
     -6.11657026682008316508e-04 	 5 4 5 1
      4.57588331128361855502e-04 	 5 4 5 2
     -1.82845016215293812260e-04 	 5 4 5 3
      1.53278461358245733821e-03 	 5 4 5 4
      7.40731776186576281948e-04 	 5 4 5 5
      5.48571676010533118041e-04 	 5 4 6 1
      8.39534120010817326227e-04 	 5 4 6 2
      4.94233900829326778560e-04 	 5 4 6 3
      5.53536415636090520925e-04 	 5 4 6 4
      1.26473410599668863695e-03 	 5 4 6 5
     -2.20091768791953051876e-03 	 5 4 6 6
      7.66266716326549114646e-04 	 5 4 7 1
     -9.94888617032777634397e-05 	 5 4 7 2
      5.88192546652935234659e-04 	 5 4 7 3
      5.64704348876053717054e-05 	 5 4 7 4
     -1.31567794675966736858e-04 	 5 4 7 5
     -5.25063216254654358504e-04 	 5 4 7 6
      8.37631464182503121182e-04 	 5 4 7 7
     -6.25468882292855646310e-04 	 5 4 8 1
     -4.27649907754439431197e-04 	 5 4 8 2
     -2.81640981927093556753e-04 	 5 4 8 3
      4.04083895524772786223e-04 	 5 4 8 4
     -6.88625046839458528070e-04 	 5 4 8 5
      6.27113741049481108157e-04 	 5 4 8 6
      2.02501158873624926855e-04 	 5 4 8 7
     -3.05459841747223468170e-03 	 5 4 8 8
      2.63834816185812059963e-01 	 5 5 1 1
      4.46401643782049460663e-03 	 5 5 2 1
      2.58265290227402910528e-01 	 5 5 2 2
     -3.37879880355700101813e-03 	 5 5 3 1
     -6.23940996402919893088e-03 	 5 5 3 2
      2.17628046172739453290e-01 	 5 5 3 3
     -1.05248701178119034340e-03 	 5 5 4 1
      2.89310730584426377410e-03 	 5 5 4 2
     -2.41004924524252771983e-03 	 5 5 4 3
      1.65899078237075142672e-01 	 5 5 4 4
     -6.37489433696424457471e-03 	 5 5 5 1
     -8.54277127526476345865e-03 	 5 5 5 2
      4.46642209969117919693e-03 	 5 5 5 3
      7.40731776186614662705e-04 	 5 5 5 4
      3.81877803346713062815e-01 	 5 5 5 5
     -2.93390293553181429401e-03 	 5 5 6 1
     -1.67404481618990924434e-03 	 5 5 6 2
     -8.92787972328541604497e-04 	 5 5 6 3
      1.07104142754087215683e-02 	 5 5 6 4
     -6.56398787026323503324e-03 	 5 5 6 5
      1.97440645862236197061e-01 	 5 5 6 6
      6.52769416339230718060e-03 	 5 5 7 1
      1.72008733186423392811e-03 	 5 5 7 2
      5.37960126648084793581e-04 	 5 5 7 3
      1.92149466967734736632e-03 	 5 5 7 4
     -5.69071532652890271081e-03 	 5 5 7 5
      8.05938708739521031399e-04 	 5 5 7 6
      2.19254121791219835913e-01 	 5 5 7 7
      3.97595691327463571230e-03 	 5 5 8 1
      8.58891346130048055629e-03 	 5 5 8 2
      4.04467920978001781868e-03 	 5 5 8 3
     -8.37984839883128967974e-03 	 5 5 8 4
     -1.10962221972895607597e-02 	 5 5 8 5
     -4.57963659450709523885e-03 	 5 5 8 6
     -2.60534894745684773854e-03 	 5 5 8 7
      2.06753105399418740662e-01 	 5 5 8 8
     -3.71378422889245872821e-04 	 6 1 1 1
     -4.39174704305921005058e-04 	 6 1 2 1
     -1.35525934004417395948e-03 	 6 1 2 2
     -7.63654207719338478343e-05 	 6 1 3 1
     -3.84758090422940746307e-04 	 6 1 3 2
     -3.63928830857301443408e-03 	 6 1 3 3
      3.33590311422609199846e-04 	 6 1 4 1
      4.93013584348567950912e-04 	 6 1 4 2
      2.14925605638951160029e-04 	 6 1 4 3
      3.98698281543652735537e-03 	 6 1 4 4
     -8.75267935977652473262e-04 	 6 1 5 1
     -5.27267805697330675836e-04 	 6 1 5 2
     -6.69589118526891374783e-04 	 6 1 5 3
      5.48571676010550356856e-04 	 6 1 5 4
     -2.93390293553178176794e-03 	 6 1 5 5
      2.86444993067482217911e-03 	 6 1 6 1
      3.12521750286531212019e-04 	 6 1 6 2
      1.29556334735356779367e-03 	 6 1 6 3
     -1.37386880800966144391e-03 	 6 1 6 4
      8.25810234878113875664e-04 	 6 1 6 5
      2.91485612497760547893e-03 	 6 1 6 6
     -3.16148463016591738193e-04 	 6 1 7 1
      3.30783597371481132704e-04 	 6 1 7 2
     -3.69350214999036754841e-04 	 6 1 7 3
     -2.15103914581634347251e-04 	 6 1 7 4
      4.10047241001329000089e-04 	 6 1 7 5
     -1.41104938141951852248e-03 	 6 1 7 6
     -2.71732247557308990299e-03 	 6 1 7 7
     -1.07303595864267822119e-03 	 6 1 8 1
     -2.37727046604957139740e-05 	 6 1 8 2
     -4.92199252946347916987e-04 	 6 1 8 3
      2.79798260891957065524e-04 	 6 1 8 4
     -8.78726227467443998798e-04 	 6 1 8 5
      1.28302662865799658141e-03 	 6 1 8 6
      2.10437263967502212296e-04 	 6 1 8 7
      6.82088557966797459208e-05 	 6 1 8 8
      2.22949152116598569608e-04 	 6 2 1 1
     -2.51699056022291057892e-04 	 6 2 2 1
      1.44736524041655682457e-03 	 6 2 2 2
     -5.25175445518833968264e-04 	 6 2 3 1
     -8.93037486027891715124e-04 	 6 2 3 2
      3.14701183198590759074e-04 	 6 2 3 3
      2.15492817721453635898e-04 	 6 2 4 1
      1.35852761850879842978e-03 	 6 2 4 2
      4.48876124590241460787e-04 	 6 2 4 3
     -2.16334965911876278208e-03 	 6 2 4 4
     -4.35385792211448940589e-04 	 6 2 5 1
     -8.70182000199916090392e-04 	 6 2 5 2
     -8.19515490344779716373e-05 	 6 2 5 3
      8.39534120010775692863e-04 	 6 2 5 4
     -1.67404481619001961612e-03 	 6 2 5 5
      3.12521750286538476174e-04 	 6 2 6 1
      2.42127107817334801670e-03 	 6 2 6 2
      8.56268959300955927356e-04 	 6 2 6 3
     -9.48546513450106197965e-04 	 6 2 6 4
      1.49515653456385269084e-03 	 6 2 6 5
     -1.36963867576382972158e-03 	 6 2 6 6
      5.53542324332182388014e-04 	 6 2 7 1
      7.70671402907372729216e-04 	 6 2 7 2
     -4.40748308317704458759e-05 	 6 2 7 3
     -3.55547105548378037428e-04 	 6 2 7 4
      3.26727688594945675678e-04 	 6 2 7 5
     -6.95962074306531253490e-04 	 6 2 7 6
      4.43851211072261546409e-04 	 6 2 7 7
     -5.08895145397120760890e-04 	 6 2 8 1
      1.62851267384816588823e-04 	 6 2 8 2
     -2.03645203415157025409e-04 	 6 2 8 3
      6.64505902015408676797e-04 	 6 2 8 4
     -6.23376663601102592310e-04 	 6 2 8 5
      3.18874828338105162709e-04 	 6 2 8 6
      3.76084865791989330090e-05 	 6 2 8 7
     -1.81288954753139525990e-03 	 6 2 8 8
      3.70536548952940004986e-03 	 6 3 1 1
     -2.58809636752733312776e-04 	 6 3 2 1
     -2.75851231944550397655e-04 	 6 3 2 2
     -1.95188831477858051877e-03 	 6 3 3 1
     -1.38219577495814986007e-03 	 6 3 3 2
      9.99850264451009745903e-03 	 6 3 3 3
      3.21438384331745039598e-04 	 6 3 4 1
      7.22724743982182935877e-04 	 6 3 4 2
      6.87913590087166370614e-04 	 6 3 4 3
     -8.58380911109953275567e-04 	 6 3 4 4
     -8.65298276277064182249e-04 	 6 3 5 1
     -9.52534914709389718759e-04 	 6 3 5 2
     -4.34659974086574855956e-04 	 6 3 5 3
      4.94233900829313442873e-04 	 6 3 5 4
     -8.92787972328566107466e-04 	 6 3 5 5
      1.29556334735356735999e-03 	 6 3 6 1
      8.56268959300957445240e-04 	 6 3 6 2
      1.98427144236100862565e-03 	 6 3 6 3
     -5.94912871156000918997e-04 	 6 3 6 4
      4.00163253943870472675e-04 	 6 3 6 5
     -7.36753626967189684249e-04 	 6 3 6 6
      1.39288631249210800855e-03 	 6 3 7 1
      7.04720589719886247523e-04 	 6 3 7 2
      4.35200373343691201966e-04 	 6 3 7 3
      2.58338383818142462624e-04 	 6 3 7 4
      6.34661631878708659173e-04 	 6 3 7 5
     -4.12263629926715559695e-04 	 6 3 7 6
      4.13815483179686381676e-03 	 6 3 7 7
     -7.96351811814165308663e-04 	 6 3 8 1
      1.15332400972159351674e-04 	 6 3 8 2
     -4.82024201014051166710e-04 	 6 3 8 3
      3.46444462648079059284e-05 	 6 3 8 4
     -9.48225601014336086543e-04 	 6 3 8 5
      6.85293983892035132172e-04 	 6 3 8 6
      1.59105352335383513733e-04 	 6 3 8 7
     -9.70013966579581928505e-04 	 6 3 8 8
      3.68815144385941599131e-03 	 6 4 1 1
      1.56598088715451154787e-03 	 6 4 2 1
      1.13226670101912365446e-02 	 6 4 2 2
     -2.97517568975201856379e-03 	 6 4 3 1
      3.40144461670065668263e-03 	 6 4 3 2
      1.02033837903259400059e-02 	 6 4 3 3
     -4.32698260510121582040e-04 	 6 4 4 1
     -2.03069745530027288838e-03 	 6 4 4 2
     -1.21873246086941808101e-03 	 6 4 4 3
     -1.10193310675289497108e-02 	 6 4 4 4
      1.37681370771520431712e-03 	 6 4 5 1
      6.16135188132387653231e-03 	 6 4 5 2
      2.12287696172220024388e-03 	 6 4 5 3
      5.53536415636125649076e-04 	 6 4 5 4
      1.07104142754089297351e-02 	 6 4 5 5
     -1.37386880800967618906e-03 	 6 4 6 1
     -9.48546513450088200209e-04 	 6 4 6 2
     -5.94912871156001244258e-04 	 6 4 6 3
      1.30618487166197193294e-02 	 6 4 6 4
      7.19054992240903594405e-04 	 6 4 6 5
     -1.42491604818297478395e-03 	 6 4 6 6
      1.86067010964014725380e-03 	 6 4 7 1
     -2.59555798002278782094e-03 	 6 4 7 2
      3.95955754281783912224e-03 	 6 4 7 3
      8.01398934653956159478e-04 	 6 4 7 4
     -2.95036324074682580407e-03 	 6 4 7 5
      8.29624914520120273868e-04 	 6 4 7 6
      1.20384059840405455155e-02 	 6 4 7 7
      1.36141231567039910390e-03 	 6 4 8 1
      5.85864579203939218714e-04 	 6 4 8 2
      6.40164021871379197715e-04 	 6 4 8 3
      1.18658958569622875918e-03 	 6 4 8 4
      2.22474445644877663261e-03 	 6 4 8 5
     -4.83994367806561643849e-04 	 6 4 8 6
      1.87017693982963396264e-04 	 6 4 8 7
     -6.01407727243376353382e-03 	 6 4 8 8
     -8.43089221067159014233e-03 	 6 5 1 1
      3.06603991701179541388e-05 	 6 5 2 1
     -3.10204532008056480669e-03 	 6 5 2 2
      5.00619475138175656220e-04 	 6 5 3 1
      1.72141809618694833009e-03 	 6 5 3 2
     -6.05945862032177158529e-03 	 6 5 3 3
      2.43695773137307582917e-04 	 6 5 4 1
     -3.26199703384435547339e-06 	 6 5 4 2
      5.31447986619683652521e-05 	 6 5 4 3
      1.17423238781947693321e-03 	 6 5 4 4
      3.01449382522756708681e-04 	 6 5 5 1
      2.37437739358533749651e-03 	 6 5 5 2