&FCI NORB=11,NELEC=0,MS2=0
ORBSYM=1,1,1,1,
ISYM=1,
/
      3.19189268723159336183e-01 	 1 1 1 1
      3.24596571750979589685e-03 	 1 1 2 1
      1.96687912743959442130e-01 	 1 1 2 2
     -2.07523994514065453221e-03 	 1 1 3 1
      1.02808424397665850152e-04 	 1 1 3 2
      1.90545137244737733395e-01 	 1 1 3 3
      5.86078407001855428149e-03 	 1 1 4 1
     -7.07183289888196897621e-05 	 1 1 4 2
      4.56646356351144777977e-04 	 1 1 4 3
      2.43871025004842395534e-01 	 1 1 4 4
      2.05004801019758502514e-03 	 1 1 5 1
      1.11817531133103674956e-04 	 1 1 5 2
      1.82353009406345176191e-03 	 1 1 5 3
     -3.55787897040255865141e-04 	 1 1 5 4
      1.51026991242806968296e-01 	 1 1 5 5
     -3.98894966688906858765e-03 	 1 1 6 1
     -1.20653445954420010262e-04 	 1 1 6 2
     -1.40489331657693040933e-03 	 1 1 6 3
      7.30016439925775060399e-04 	 1 1 6 4
     -2.14377682940397888862e-04 	 1 1 6 5
      1.59442277338341098503e-01 	 1 1 6 6
      3.51357413409818675892e-03 	 1 1 7 1
     -4.59350340121920594494e-03 	 1 1 7 2
      1.05589726343220322025e-03 	 1 1 7 3
     -1.20299514131165137532e-02 	 1 1 7 4
      2.03461371981396256167e-03 	 1 1 7 5
     -3.84290365243097420747e-03 	 1 1 7 6
      2.56114132328863097765e-01 	 1 1 7 7
     -6.32562868692018113320e-03 	 1 1 8 1
      4.38878129212494014211e-03 	 1 1 8 2
     -2.12708547561968200693e-03 	 1 1 8 3
      6.99138661735983213408e-03 	 1 1 8 4
      7.92551095382915495903e-04 	 1 1 8 5
      2.41973324312428576116e-03 	 1 1 8 6
      8.75372522552002145513e-03 	 1 1 8 7
      2.67281635753707724756e-01 	 1 1 8 8
      1.40908568404985389509e-03 	 1 1 9 1
      3.11972716566047696303e-04 	 1 1 9 2
     -1.45212230055465464987e-03 	 1 1 9 3
      2.05200146648097572072e-03 	 1 1 9 4
      1.22665953675621971879e-04 	 1 1 9 5
      2.15129568925208174146e-03 	 1 1 9 6
     -1.75290683249277158898e-03 	 1 1 9 7
      4.24109762454105698737e-03 	 1 1 9 8
      1.91075797420514836844e-01 	 1 1 9 9
      3.30293054992999383229e-03 	 1 1 10 1
     -1.22073008094851498395e-04 	 1 1 10 2
     -1.92166998099211000853e-03 	 1 1 10 3
     -3.14346571782401097012e-03 	 1 1 10 4
     -5.52440565300769156724e-04 	 1 1 10 5
      1.33996302515602440375e-03 	 1 1 10 6
     -3.26255587582594897347e-04 	 1 1 10 7
     -5.95131806415078422334e-04 	 1 1 10 8
      1.91307202373270203791e-04 	 1 1 10 9
      2.65688072452947787738e-01 	 1 1 10 10
      1.87753276316141872425e-03 	 1 1 11 1
      1.03458851591234921377e-03 	 1 1 11 2
     -3.14380946941443181752e-04 	 1 1 11 3
     -1.74462915349963545650e-03 	 1 1 11 4
      1.42142894146978816805e-03 	 1 1 11 5
     -4.10190612367883778583e-04 	 1 1 11 6
     -1.77323112619816106172e-02 	 1 1 11 7
      1.04638873959055317235e-03 	 1 1 11 8
     -2.78436683039431183070e-03 	 1 1 11 9
     -5.14239643567296778742e-03 	 1 1 11 10
      2.35832290738215294423e-01 	 1 1 11 11
      3.24596571750979025900e-03 	 2 1 1 1
      3.11858301523874848968e-03 	 2 1 2 1
      1.61907502320734128509e-02 	 2 1 2 2
     -1.00120242960193657142e-03 	 2 1 3 1
     -8.13363686002206319123e-04 	 2 1 3 2
      1.55580480156585487794e-02 	 2 1 3 3
      1.52891066790390326921e-03 	 2 1 4 1
     -2.13340886294590206806e-03 	 2 1 4 2
      1.52309955690473693320e-03 	 2 1 4 3
      9.45603650098673746693e-03 	 2 1 4 4
     -2.73757124448230923855e-04 	 2 1 5 1
     -1.65482318160047785563e-04 	 2 1 5 2
      2.04831059412774184087e-05 	 2 1 5 3
     -1.27217853486081449495e-04 	 2 1 5 4
     -1.45847480695831376724e-02 	 2 1 5 5
      2.58913639588648312063e-04 	 2 1 6 1
      2.19509102550575834704e-04 	 2 1 6 2
      8.05403897931948088706e-04 	 2 1 6 3
     -3.15969385861943183238e-04 	 2 1 6 4
     -2.44527968917616737865e-05 	 2 1 6 5
      9.19727339432871958402e-03 	 2 1 6 6
      7.40801386000395625450e-04 	 2 1 7 1
     -9.55045188065987548515e-04 	 2 1 7 2
      9.93729978446234460746e-04 	 2 1 7 3
     -2.77407764336943217509e-03 	 2 1 7 4
      1.70671109489553904240e-04 	 2 1 7 5
     -1.83464739924139603328e-03 	 2 1 7 6
      1.08706222265303117935e-02 	 2 1 7 7
      4.00204294141530175950e-04 	 2 1 8 1
     -3.57206026704734501496e-04 	 2 1 8 2
      2.77856334697223811194e-04 	 2 1 8 3
     -7.06029196459214726522e-04 	 2 1 8 4
     -1.44844708486084670744e-05 	 2 1 8 5
     -1.05069374713729051657e-03 	 2 1 8 6
      1.14151023907032808137e-03 	 2 1 8 7
      1.09036219664933944906e-02 	 2 1 8 8
      2.03707578350209892815e-04 	 2 1 9 1
      4.92843685054295379058e-04 	 2 1 9 2
      3.45081998197438780639e-04 	 2 1 9 3
      9.12078269480050908601e-05 	 2 1 9 4
     -4.91522154921198280381e-06 	 2 1 9 5
     -5.31490708458923601445e-04 	 2 1 9 6
     -1.24793004496546035102e-03 	 2 1 9 7
     -6.79788579490514131495e-04 	 2 1 9 8
      1.76458142148796688631e-02 	 2 1 9 9
      2.60808815322248477298e-03 	 2 1 10 1
     -1.56942531678011206776e-03 	 2 1 10 2
      5.21352790082484345707e-04 	 2 1 10 3
     -1.57252900458571443117e-03 	 2 1 10 4
      1.16207023788216819290e-04 	 2 1 10 5
     -2.77726719632545994247e-04 	 2 1 10 6
     -4.74877879967874080933e-04 	 2 1 10 7
     -1.83833675099292440797e-03 	 2 1 10 8
     -4.21937577755650337734e-04 	 2 1 10 9
      4.00725489012996715504e-03 	 2 1 10 10
      2.10121749172113674031e-03 	 2 1 11 1
     -5.28642871188606238569e-04 	 2 1 11 2
      4.29090993958096682693e-04 	 2 1 11 3
     -7.74393361785873568168e-04 	 2 1 11 4
     -9.60896523911052436850e-05 	 2 1 11 5
     -1.08007467389212644115e-03 	 2 1 11 6
     -4.16901498264667276505e-03 	 2 1 11 7
     -2.69805526926775564658e-04 	 2 1 11 8
     -1.04403464961779195858e-03 	 2 1 11 9
     -1.47703939291456793834e-03 	 2 1 11 10
      1.46575520214155307144e-04 	 2 1 11 11
      1.96687912743959525397e-01 	 2 2 1 1
      1.61907502320733989731e-02 	 2 2 2 1
      7.11146846659515663447e-01 	 2 2 2 2
     -1.62167424989465847052e-02 	 2 2 3 1
      2.87705758006018144993e-03 	 2 2 3 2
      4.78753512875841613639e-01 	 2 2 3 3
      8.65322310418165964452e-03 	 2 2 4 1
     -5.24710473909521940561e-02 	 2 2 4 2
      1.04975328752087426754e-02 	 2 2 4 3
      3.38590659868084620232e-01 	 2 2 4 4
     -3.63608226658678358040e-03 	 2 2 5 1
     -2.62761348161396745410e-03 	 2 2 5 2
     -1.00315872524182675071e-03 	 2 2 5 3
     -1.91253127908148305020e-03 	 2 2 5 4
      5.37565203194484420024e-03 	 2 2 5 5
     -2.67869099275140718636e-03 	 2 2 6 1
      7.84907428531880606293e-03 	 2 2 6 2
      8.42207684101695629175e-03 	 2 2 6 3
     -3.29611221804764278898e-03 	 2 2 6 4
      5.74008757979639541030e-04 	 2 2 6 5
      3.89712545521897157919e-01 	 2 2 6 6
      9.83309080080041648941e-03 	 2 2 7 1
     -9.33624719535744961030e-03 	 2 2 7 2
      1.25545719805845602118e-02 	 2 2 7 3
     -2.73818587670479167417e-02 	 2 2 7 4
      4.92102430423942052012e-04 	 2 2 7 5
     -1.99130860376102933329e-02 	 2 2 7 6
      1.85521986213684292322e-01 	 2 2 7 7
      1.05097452807473984437e-03 	 2 2 8 1
     -1.27580234613012821754e-02 	 2 2 8 2
      4.46943460102560211067e-03 	 2 2 8 3
     -7.88982132583949079263e-03 	 2 2 8 4
      1.50010638499839706050e-04 	 2 2 8 5
     -1.30910401137538934258e-02 	 2 2 8 6
      9.71155251124088472747e-03 	 2 2 8 7
      2.76428629647529622293e-01 	 2 2 8 8
      4.20741317321547160513e-04 	 2 2 9 1
      1.12724519368591347135e-02 	 2 2 9 2
      2.20178417491982084814e-03 	 2 2 9 3
      3.30174322209448364157e-03 	 2 2 9 4
     -1.04498616936751591560e-04 	 2 2 9 5
     -1.46200277871684561348e-02 	 2 2 9 6
     -1.37243020158571531197e-02 	 2 2 9 7
     -9.96566265642270625313e-03 	 2 2 9 8
      4.93669980635072780384e-01 	 2 2 9 9
      1.90280384501605240311e-02 	 2 2 10 1
     -3.58563238005536258357e-02 	 2 2 10 2
      5.75088867489274412764e-03 	 2 2 10 3
     -1.56314839315246367768e-02 	 2 2 10 4
     -9.92736961796162383637e-04 	 2 2 10 5
     -3.27678231897651946192e-03 	 2 2 10 6
     -5.49736762368254004013e-03 	 2 2 10 7
     -1.04324097763089963797e-02 	 2 2 10 8
     -5.35802695114561723655e-03 	 2 2 10 9
      1.43431932292415548202e-01 	 2 2 10 10
      1.40473903256910417209e-02 	 2 2 11 1
     -1.44405276500341461787e-02 	 2 2 11 2
      8.39979435298828305823e-03 	 2 2 11 3
     -1.47570345137738034857e-02 	 2 2 11 4
     -1.72646735337524896009e-03 	 2 2 11 5
     -1.75659779467807579401e-02 	 2 2 11 6
     -3.20133686226341598879e-02 	 2 2 11 7
     -2.48396246034051325358e-03 	 2 2 11 8
     -1.57510015484605692127e-02 	 2 2 11 9
     -9.36447472746047143710e-03 	 2 2 11 10
      1.74999756770624959046e-01 	 2 2 11 11
     -2.07523994514064802699e-03 	 3 1 1 1
     -1.00120242960193700510e-03 	 3 1 2 1
     -1.62167424989465569496e-02 	 3 1 2 2
      3.92460154696595061447e-03 	 3 1 3 1
     -2.57611319603707632133e-04 	 3 1 3 2
     -1.24067442654469464736e-02 	 3 1 3 3
     -3.67314187790347549453e-04 	 3 1 4 1
      2.49219837777684988939e-03 	 3 1 4 2
     -5.28543741483939160525e-04 	 3 1 4 3
     -1.83879740221658642685e-02 	 3 1 4 4
      5.57435114770608820464e-04 	 3 1 5 1
      1.50837672516650515234e-04 	 3 1 5 2
     -2.75645812331410885749e-04 	 3 1 5 3
      2.06852742425992554851e-04 	 3 1 5 4
      8.77697696765051063594e-03 	 3 1 5 5
     -7.86420350122862582727e-04 	 3 1 6 1
      5.91797622614540896196e-04 	 3 1 6 2
     -3.64380951622497793567e-04 	 3 1 6 3
     -1.40753457442527622409e-04 	 3 1 6 4
      2.58791131857283924122e-05 	 3 1 6 5
      9.65894689536345683878e-03 	 3 1 6 6
     -7.83043603427295196139e-04 	 3 1 7 1
      5.39103544951556189375e-04 	 3 1 7 2
     -3.08286360751180727596e-04 	 3 1 7 3
      2.32882613967619941236e-03 	 3 1 7 4
      1.63112299304976290405e-05 	 3 1 7 5
      5.94285403547094672784e-04 	 3 1 7 6
     -7.19962895877079324392e-03 	 3 1 7 7
     -5.22257253156369061209e-04 	 3 1 8 1
      4.95325167956466028141e-04 	 3 1 8 2
     -2.53129949391550721893e-04 	 3 1 8 3
      8.82482134386783031478e-04 	 3 1 8 4
      9.90392549991301267926e-05 	 3 1 8 5
      6.82162294869394897866e-04 	 3 1 8 6
     -1.12958805490257505402e-03 	 3 1 8 7
     -1.41192940865411606377e-02 	 3 1 8 8
     -3.09439593899492955582e-04 	 3 1 9 1
     -2.97699515826536334658e-04 	 3 1 9 2
     -1.65055517033326415097e-04 	 3 1 9 3
     -2.85639593188944952143e-05 	 3 1 9 4
      3.08086783850781880723e-05 	 3 1 9 5
      3.33062900941328014943e-04 	 3 1 9 6
      1.02180626351947435697e-03 	 3 1 9 7
      7.65629911135894580983e-04 	 3 1 9 8
     -1.92986235806748077093e-02 	 3 1 9 9
     -1.93939450169399222289e-03 	 3 1 10 1
      1.29948204907102049174e-03 	 3 1 10 2
      1.58248865817098863457e-04 	 3 1 10 3
      1.72056153091215777856e-03 	 3 1 10 4
      8.88025578328086940324e-05 	 3 1 10 5
      1.71595208602654436710e-05 	 3 1 10 6
      4.72577001483140987734e-04 	 3 1 10 7
      1.45101924199936760038e-03 	 3 1 10 8
      3.03572848593573611006e-04 	 3 1 10 9
      1.62052102651502865499e-03 	 3 1 10 10
     -1.69746240342997655078e-03 	 3 1 11 1
      1.37347956263763416917e-04 	 3 1 11 2
     -8.98606866982335243318e-06 	 3 1 11 3
      5.32644197481182859848e-04 	 3 1 11 4
      3.78263603464572793766e-04 	 3 1 11 5
      4.03665726941076228110e-04 	 3 1 11 6
      2.74695155242261424347e-03 	 3 1 11 7
      6.90624073913680548535e-04 	 3 1 11 8
      1.09141693309274890114e-03 	 3 1 11 9
      7.43960752025754710332e-04 	 3 1 11 10
     -2.38517015861344251759e-03 	 3 1 11 11
      1.02808424397667855926e-04 	 3 2 1 1
     -8.13363686002208595947e-04 	 3 2 2 1
      2.87705758006017798048e-03 	 3 2 2 2
     -2.57611319603706764771e-04 	 3 2 3 1
      2.86292442746942290416e-03 	 3 2 3 2
      3.55390503185462874186e-03 	 3 2 3 3
     -1.65241555705310813693e-04 	 3 2 4 1
     -6.40957554663136109055e-04 	 3 2 4 2
     -1.56643240815709751043e-03 	 3 2 4 3
      2.27135375788829361673e-03 	 3 2 4 4
     -5.32534502638213583410e-05 	 3 2 5 1
      3.64448035935620260890e-05 	 3 2 5 2
     -6.84851009183266729312e-06 	 3 2 5 3
      3.61144466143687380925e-05 	 3 2 5 4
     -3.64329127548349875065e-03 	 3 2 5 5
      1.02275856133681518714e-04 	 3 2 6 1
      8.76396562481131078835e-05 	 3 2 6 2
      5.96652696390291683920e-06 	 3 2 6 3
     -1.92727198299433527626e-04 	 3 2 6 4
     -1.48152904283651913294e-05 	 3 2 6 5
      1.40860019725071931689e-03 	 3 2 6 6
      2.47683778543854500338e-04 	 3 2 7 1
     -8.14501228736520772400e-05 	 3 2 7 2
      2.03399168547240124724e-04 	 3 2 7 3
     -6.06676864625728005584e-04 	 3 2 7 4
     -3.84897164431405216633e-05 	 3 2 7 5
     -3.50684261101354274523e-04 	 3 2 7 6
      6.21076092451452229509e-04 	 3 2 7 7
      4.54763489831109060397e-05 	 3 2 8 1
     -3.19888233048688146523e-04 	 3 2 8 2
      3.03381871987285303433e-04 	 3 2 8 3
     -3.41847249601596927387e-04 	 3 2 8 4
      1.59528659747791684543e-05 	 3 2 8 5
     -2.15574438092692554757e-04 	 3 2 8 6
      2.20821100213364793045e-04 	 3 2 8 7
      2.19468707607501809995e-03 	 3 2 8 8
      1.95903666743659643371e-04 	 3 2 9 1
      1.05340113026531335375e-04 	 3 2 9 2
     -3.51114851635083634286e-05 	 3 2 9 3
     -7.10482099515990898637e-05 	 3 2 9 4
     -1.11211892695732001812e-05 	 3 2 9 5
     -1.02395644248061296077e-04 	 3 2 9 6
     -2.42909488809670991074e-04 	 3 2 9 7
     -1.54314005717473708666e-04 	 3 2 9 8
      4.24667027116046747609e-03 	 3 2 9 9
      4.96610069470088512714e-04 	 3 2 10 1
     -6.29929658288359579227e-04 	 3 2 10 2
      1.04517209975285655646e-04 	 3 2 10 3
     -5.25195056937812539827e-04 	 3 2 10 4
      9.17295933080753130386e-06 	 3 2 10 5
     -7.70879523137085113753e-05 	 3 2 10 6
     -2.06474040403011748933e-04 	 3 2 10 7
     -3.41646224886697834171e-04 	 3 2 10 8
     -9.69945545541079430941e-05 	 3 2 10 9
     -3.34280939662144540182e-04 	 3 2 10 10
      3.63740597432542982041e-04 	 3 2 11 1
     -3.04022993478918310446e-04 	 3 2 11 2
      3.64420367344981213122e-04 	 3 2 11 3
     -4.75722315760875220664e-04 	 3 2 11 4
     -4.05943372299534191308e-05 	 3 2 11 5
     -2.49040606850100838116e-04 	 3 2 11 6
     -8.56004928220351220779e-04 	 3 2 11 7
     -7.32555813797968732653e-05 	 3 2 11 8
     -2.54601490739550366006e-04 	 3 2 11 9
     -3.14559854923026423375e-04 	 3 2 11 10
     -2.16504261916617855768e-04 	 3 2 11 11
      1.90545137244737733395e-01 	 3 3 1 1
      1.55580480156585522489e-02 	 3 3 2 1
      4.78753512875841502616e-01 	 3 3 2 2
     -1.24067442654469395347e-02 	 3 3 3 1
      3.55390503185463524707e-03 	 3 3 3 2
      6.29869187945210629032e-01 	 3 3 3 3
      1.07825440210603182289e-02 	 3 3 4 1
     -4.08300034730373212488e-02 	 3 3 4 2
      1.63489834363465119660e-02 	 3 3 4 3
      3.20387175117886668918e-01 	 3 3 4 4
     -4.20686171262993954117e-03 	 3 3 5 1
     -1.77746201600266322262e-03 	 3 3 5 2
     -1.33924806316368751914e-03 	 3 3 5 3
     -1.99976495355394219902e-03 	 3 3 5 4
     -4.60432961471289731170e-02 	 3 3 5 5
     -2.90506486061443882501e-03 	 3 3 6 1
      5.48602786211842968767e-03 	 3 3 6 2
      1.20372049170167656068e-02 	 3 3 6 3
     -6.64997626977168777851e-03 	 3 3 6 4
      5.17253070647519372013e-04 	 3 3 6 5
      4.32540303248117374846e-01 	 3 3 6 6
      1.30414568468958276537e-02 	 3 3 7 1
     -1.04278137145696683796e-02 	 3 3 7 2
      1.83841266162159157338e-02 	 3 3 7 3
     -3.35300243334762521075e-02 	 3 3 7 4
      8.41824292685558754797e-04 	 3 3 7 5
     -2.54491923494438929132e-02 	 3 3 7 6
      1.93701018039312056196e-01 	 3 3 7 7
     -6.27036813978516620327e-05 	 3 3 8 1
     -9.88938434796014093076e-03 	 3 3 8 2
      8.04873055559187852714e-03 	 3 3 8 3
     -8.67745563750491229194e-03 	 3 3 8 4
     -2.00887961866312472585e-04 	 3 3 8 5
     -1.65543108144999666365e-02 	 3 3 8 6
      1.28618048494322390757e-02 	 3 3 8 7
      2.98189056899853199845e-01 	 3 3 8 8
     -4.09264943044356909602e-04 	 3 3 9 1
      1.32269847173449497241e-02 	 3 3 9 2
      3.13133363729127967706e-03 	 3 3 9 3
     -1.11356204007375531040e-03 	 3 3 9 4
      1.20535664024928369526e-04 	 3 3 9 5
     -1.39516121497188540224e-02 	 3 3 9 6
     -2.17138380709220105147e-02 	 3 3 9 7
     -1.25129406245154343319e-02 	 3 3 9 8
      6.83840721290663311471e-01 	 3 3 9 9
      2.26679013869450357577e-02 	 3 3 10 1
     -2.61080110762353448384e-02 	 3 3 10 2
      1.08470240520391579542e-02 	 3 3 10 3
     -1.80284440089559933051e-02 	 3 3 10 4
     -1.15837558158220937411e-03 	 3 3 10 5
     -3.65688875614114585616e-03 	 3 3 10 6
     -7.97197399792908510674e-03 	 3 3 10 7
     -1.57096951725937093725e-02 	 3 3 10 8
     -7.07556047153651106185e-03 	 3 3 10 9
      1.32303860371622644676e-01 	 3 3 10 10
      1.83063036850074668804e-02 	 3 3 11 1
     -1.10106457399199060554e-02 	 3 3 11 2
      1.38542860108214829773e-02 	 3 3 11 3
     -1.63094147281018612972e-02 	 3 3 11 4
     -1.67511977006299392703e-03 	 3 3 11 5
     -1.95299314621749584009e-02 	 3 3 11 6
     -4.02410451651894901515e-02 	 3 3 11 7
     -2.68884106784190567846e-03 	 3 3 11 8
     -2.24979726415006769935e-02 	 3 3 11 9
     -1.23231603597032668418e-02 	 3 3 11 10
      1.50061099289987676109e-01 	 3 3 11 11
      5.86078407001856382247e-03 	 4 1 1 1
      1.52891066790390543761e-03 	 4 1 2 1
      8.65322310418165097090e-03 	 4 1 2 2
     -3.67314187790346085780e-04 	 4 1 3 1
     -1.65241555705310054752e-04 	 4 1 3 2
      1.07825440210603095553e-02 	 4 1 3 3
      6.40395789949299663185e-03 	 4 1 4 1
     -9.07299705590048168914e-04 	 4 1 4 2
      1.31920092062234807669e-03 	 4 1 4 3
      7.65199857998321436581e-03 	 4 1 4 4
      1.05229238436979990502e-04 	 4 1 5 1
     -2.94899723970619107602e-05 	 4 1 5 2
      9.98227820257910147079e-05 	 4 1 5 3
     -3.55262940984530815533e-04 	 4 1 5 4
     -1.16270390317333820185e-02 	 4 1 5 5
     -2.55689683477193486182e-04 	 4 1 6 1
      4.65810972154157780078e-05 	 4 1 6 2
      3.65629494846201794599e-04 	 4 1 6 3
     -9.83446528092256952013e-05 	 4 1 6 4
     -1.88788136939551558571e-05 	 4 1 6 5
      5.49449051196563339333e-03 	 4 1 6 6
      5.24098544637662411977e-04 	 4 1 7 1
     -7.38459311412176548292e-04 	 4 1 7 2
      7.40446073346893627286e-04 	 4 1 7 3
     -1.71271653985386059470e-03 	 4 1 7 4
      3.36796860725350794170e-04 	 4 1 7 5
     -1.13715870344815376917e-03 	 4 1 7 6
      4.20717607934251343338e-03 	 4 1 7 7
      3.68548749214974574739e-05 	 4 1 8 1
     -2.28129096609583489549e-04 	 4 1 8 2
     -1.95276917430874520469e-04 	 4 1 8 3
      6.26821638626522603319e-04 	 4 1 8 4
     -7.82846166889104118011e-05 	 4 1 8 5
     -6.28572746217821460429e-04 	 4 1 8 6
      7.32313790774546382809e-04 	 4 1 8 7
      8.65651524697026199251e-03 	 4 1 8 8
      2.58754593446328790517e-04 	 4 1 9 1
      3.08323527374864151882e-04 	 4 1 9 2
      2.11486889034907338475e-04 	 4 1 9 3
      2.41432530127846462159e-04 	 4 1 9 4
      1.03106825485872327246e-05 	 4 1 9 5
     -2.67343002851525024261e-04 	 4 1 9 6
     -8.26591147248371049469e-04 	 4 1 9 7
     -2.68737732108078220417e-04 	 4 1 9 8
      1.27905325879466551936e-02 	 4 1 9 9
      8.72411659874946154511e-04 	 4 1 10 1
     -1.13521093508988160647e-03 	 4 1 10 2
      2.55606228594951797456e-04 	 4 1 10 3
     -1.26404231125968452825e-04 	 4 1 10 4
      7.94659950194682941551e-05 	 4 1 10 5
     -2.84176263254056382830e-04 	 4 1 10 6
     -5.69806148419682535408e-04 	 4 1 10 7
     -1.19954970665762353406e-03 	 4 1 10 8
     -3.87971103528219718286e-04 	 4 1 10 9
      4.86239520329499134293e-03 	 4 1 10 10
      9.46324548723543072445e-04 	 4 1 11 1
     -4.49267797447244678771e-04 	 4 1 11 2
     -6.73174379153286257631e-05 	 4 1 11 3
     -3.37839446671906211070e-05 	 4 1 11 4
      3.69218497824323499965e-05 	 4 1 11 5
     -6.90312239412177799935e-04 	 4 1 11 6
     -2.38838736466903851785e-03 	 4 1 11 7
     -2.28012353863338491271e-04 	 4 1 11 8
     -7.58990064626650137031e-04 	 4 1 11 9
     -1.40679932405271155768e-03 	 4 1 11 10
     -1.80290606829939322082e-04 	 4 1 11 11
     -7.07183289887858626543e-05 	 4 2 1 1
     -2.13340886294589686389e-03 	 4 2 2 1
     -5.24710473909521316060e-02 	 4 2 2 2
      2.49219837777683948105e-03 	 4 2 3 1
     -6.40957554663134374331e-04 	 4 2 3 2
     -4.08300034730373490044e-02 	 4 2 3 3
     -9.07299705590047952074e-04 	 4 2 4 1
      9.95807199576850474165e-03 	 4 2 4 2
     -1.32938521971501678182e-03 	 4 2 4 3
     -2.96787433479023220195e-02 	 4 2 4 4
      6.63227456353034962311e-04 	 4 2 5 1
      3.14059646464714113147e-04 	 4 2 5 2
      1.68950741007534616144e-04 	 4 2 5 3
      1.74537850646545660786e-04 	 4 2 5 4
      2.73022086174865390162e-02 	 4 2 5 5
     -5.54315260371301607705e-05 	 4 2 6 1
     -1.16669553766756480418e-04 	 4 2 6 2
     -1.14268962858600020907e-03 	 4 2 6 3
      3.77612569398201917102e-04 	 4 2 6 4
     -5.78798425028210404781e-05 	 4 2 6 5
     -2.49463697542450374423e-02 	 4 2 6 6
     -1.66825740568918474971e-03 	 4 2 7 1
      1.26303380801379085303e-03 	 4 2 7 2
     -1.85451426509486753079e-03 	 4 2 7 3
      4.69746141133245854321e-03 	 4 2 7 4
     -5.74519752928651208966e-05 	 4 2 7 5
      3.02956515403528421626e-03 	 4 2 7 6
     -3.74886571048789604341e-03 	 4 2 7 7
     -2.89914465457942482646e-04 	 4 2 8 1
      1.25881134345180159193e-03 	 4 2 8 2
     -9.35485417496486823530e-04 	 4 2 8 3
      2.52315158865074832401e-03 	 4 2 8 4
      9.28571376949590679070e-05 	 4 2 8 5
      2.16147567854230865381e-03 	 4 2 8 6
     -1.08409230538792137298e-03 	 4 2 8 7
     -1.69821704291577106616e-02 	 4 2 8 8
     -2.71957691170398446756e-04 	 4 2 9 1
     -5.79683523756964014066e-04 	 4 2 9 2
     -2.75459087066249209280e-04 	 4 2 9 3
     -5.66056603498095358556e-04 	 4 2 9 4
      5.39065048017792571890e-05 	 4 2 9 5
      1.74366590536348506531e-03 	 4 2 9 6
      2.05741941928977390905e-03 	 4 2 9 7
      1.83998681468433263400e-03 	 4 2 9 8
     -4.16986484528719461573e-02 	 4 2 9 9
     -3.13286470965848775141e-03 	 4 2 10 1
      4.00036844272090401364e-03 	 4 2 10 2
     -1.04233169216678424850e-03 	 4 2 10 3
      3.27824987320120102285e-03 	 4 2 10 4
      7.42505861117087162093e-05 	 4 2 10 5
      6.00120177362482767197e-04 	 4 2 10 6
      1.41430647500867382772e-03 	 4 2 10 7
      2.38011417440306188506e-03 	 4 2 10 8
      8.97035715934822513659e-04 	 4 2 10 9
      6.42167721403660764906e-03 	 4 2 10 10
     -2.41564249352442701746e-03 	 4 2 11 1
      1.12183672644270392149e-03 	 4 2 11 2
     -1.33667561431995889423e-03 	 4 2 11 3
      3.14456537019347417278e-03 	 4 2 11 4
      3.21408809883131935808e-04 	 4 2 11 5
      2.53039814927276483086e-03 	 4 2 11 6
      5.38432726859291652111e-03 	 4 2 11 7
      6.29451025147186255318e-04 	 4 2 11 8
      2.10323238751469136082e-03 	 4 2 11 9
      1.65315581831611876223e-03 	 4 2 11 10
      3.28479306251472542855e-03 	 4 2 11 11
      4.56646356351143910615e-04 	 4 3 1 1
      1.52309955690474018580e-03 	 4 3 2 1
      1.04975328752087478795e-02 	 4 3 2 2
     -5.28543741483939160525e-04 	 4 3 3 1
     -1.56643240815710054620e-03 	 4 3 3 2
      1.63489834363465050271e-02 	 4 3 3 3
      1.31920092062233701782e-03 	 4 3 4 1
     -1.32938521971502198599e-03 	 4 3 4 2
      5.59448475951188333583e-03 	 4 3 4 3
      6.86261649529317473151e-03 	 4 3 4 4
     -2.26716478555425148293e-04 	 4 3 5 1
     -9.21334448963404375240e-05 	 4 3 5 2
     -1.68397381559417383466e-05 	 4 3 5 3
     -2.86446334150281217527e-04 	 4 3 5 4
     -1.43172631340114115545e-02 	 4 3 5 5
      2.07119972794611764526e-05 	 4 3 6 1
     -4.73499614375436566694e-05 	 4 3 6 2
      6.64644255429471344544e-04 	 4 3 6 3
     -4.33778070735806216274e-04 	 4 3 6 4
     -8.32493854878142450714e-06 	 4 3 6 5
      7.58364797702699034582e-03 	 4 3 6 6
      8.67794827531239570950e-04 	 4 3 7 1
     -8.30711610149859709315e-04 	 4 3 7 2
      8.36965145910121503109e-04 	 4 3 7 3
     -2.36462593287153216570e-03 	 4 3 7 4
      5.45139298546372288567e-05 	 4 3 7 5
     -1.35342692150788000693e-03 	 4 3 7 6
      1.88999617966501692878e-03 	 4 3 7 7
     -2.08402863894580439065e-05 	 4 3 8 1
     -4.53581201488039461971e-04 	 4 3 8 2
     -5.30645263445544133115e-05 	 4 3 8 3
     -2.60992844354316104113e-04 	 4 3 8 4
     -2.35839374354144955769e-05 	 4 3 8 5
     -9.48355410145650199599e-04 	 4 3 8 6
      6.50014219724538450801e-04 	 4 3 8 7
      6.56420194779607207164e-03 	 4 3 8 8
      1.46339292026518224621e-04 	 4 3 9 1
      3.87913143956448687802e-04 	 4 3 9 2
      3.88345519418964988702e-04 	 4 3 9 3
     -1.27790529136699077982e-04 	 4 3 9 4
     -2.07548473938374370969e-05 	 4 3 9 5
     -4.76201130661371685969e-04 	 4 3 9 6
     -1.03986092210363030401e-03 	 4 3 9 7
     -6.91742782909287169495e-04 	 4 3 9 8
      1.99176668471696266538e-02 	 4 3 9 9
      1.04158249867196883373e-03 	 4 3 10 1
     -1.00802766059676597241e-03 	 4 3 10 2
      2.86381970778097931160e-04 	 4 3 10 3
     -5.91297543875661047244e-04 	 4 3 10 4
      1.28887701379594906965e-05 	 4 3 10 5
     -3.40978364877529314340e-04 	 4 3 10 6
     -7.74196293329140272990e-04 	 4 3 10 7
     -1.38056576206115923233e-03 	 4 3 10 8
     -4.83570279231315973325e-04 	 4 3 10 9
     -1.70672814671202059157e-03 	 4 3 10 10
      1.07848928234958551901e-03 	 4 3 11 1
     -6.78453690089316505465e-04 	 4 3 11 2
      1.18813143123343420079e-04 	 4 3 11 3
     -8.33072539781036947720e-04 	 4 3 11 4
     -2.24905154589676199717e-04 	 4 3 11 5
     -9.41288331277632690092e-04 	 4 3 11 6
     -2.64593054108927961537e-03 	 4 3 11 7
     -2.19363609572970069813e-04 	 4 3 11 8
     -9.80454953901165483093e-04 	 4 3 11 9
     -1.08200118677862443771e-03 	 4 3 11 10
     -2.86151829904480537251e-03 	 4 3 11 11
      2.43871025004842395534e-01 	 4 4 1 1
      9.45603650098674614055e-03 	 4 4 2 1
      3.38590659868084675743e-01 	 4 4 2 2
     -1.83879740221658677379e-02 	 4 4 3 1
      2.27135375788829925459e-03 	 4 4 3 2
      3.20387175117886502385e-01 	 4 4 3 3
      7.65199857998320569219e-03 	 4 4 4 1
     -2.96787433479024607974e-02 	 4 4 4 2
      6.86261649529317906832e-03 	 4 4 4 3
      5.05657657292615470013e-01 	 4 4 4 4
     -2.82125871012455214232e-03 	 4 4 5 1
     -1.15926285522686446650e-03 	 4 4 5 2
      5.48923163436021107654e-04 	 4 4 5 3
     -3.73050721747871438447e-03 	 4 4 5 4
      8.84385623023268008236e-02 	 4 4 5 5
     -3.22407840750983188186e-04 	 4 4 6 1
      7.09645500532353804522e-04 	 4 4 6 2
      2.28594377381664609281e-03 	 4 4 6 3
     -1.12677519111659173515e-03 	 4 4 6 4
      3.32877005437580159725e-04 	 4 4 6 5
      2.37089958135333928047e-01 	 4 4 6 6
      8.03786312609789353745e-03 	 4 4 7 1
     -5.13732109289055747375e-03 	 4 4 7 2
      3.29904914353614051731e-03 	 4 4 7 3
     -2.57638888759501652470e-02 	 4 4 7 4
      1.02917103766846356611e-04 	 4 4 7 5
     -9.84726260278146608984e-03 	 4 4 7 6
      2.17873011876473510195e-01 	 4 4 7 7
      1.25480801534715372125e-03 	 4 4 8 1
      4.08804833065879759391e-05 	 4 4 8 2
      2.67373588251660666837e-03 	 4 4 8 3
     -3.62183283117850597296e-03 	 4 4 8 4
      6.00587367266627349116e-04 	 4 4 8 5
     -6.79030171461521975251e-03 	 4 4 8 6
      1.01255999406392616785e-02 	 4 4 8 7
      3.23017780624996864169e-01 	 4 4 8 8
      1.78394107462804965905e-03 	 4 4 9 1
      2.20874551335810799871e-03 	 4 4 9 2
     -2.98260883371894033010e-04 	 4 4 9 3
      5.31379509856151101277e-03 	 4 4 9 4
     -2.56441576163916537534e-04 	 4 4 9 5
     -4.14679450757494093283e-03 	 4 4 9 6
     -5.98667406756324751993e-03 	 4 4 9 7
     -4.32696896953008516840e-03 	 4 4 9 8
      3.00297988890114830873e-01 	 4 4 9 9
      1.65315601637228970500e-02 	 4 4 10 1
     -1.09231127244834337608e-02 	 4 4 10 2
      2.36128850056769668334e-03 	 4 4 10 3
     -2.48804969361979266829e-02 	 4 4 10 4
     -1.16085635027533828900e-03 	 4 4 10 5
     -3.27064093894163018111e-04 	 4 4 10 6
     -5.69513306841924922541e-04 	 4 4 10 7
     -7.71797503657262705390e-03 	 4 4 10 8
     -1.92458862168210344604e-03 	 4 4 10 9
      1.89932289236962759116e-01 	 4 4 10 10
      1.10598236589248589967e-02 	 4 4 11 1
     -4.37211655032940498672e-04 	 4 4 11 2
      2.98165721420808613532e-03 	 4 4 11 3
     -8.53446812080317813998e-03 	 4 4 11 4
     -2.87312453337652427485e-03 	 4 4 11 5
     -1.07633081708164660834e-02 	 4 4 11 6
     -2.73953517135427024320e-02 	 4 4 11 7
     -7.23637382233834145634e-03 	 4 4 11 8
     -1.06140808830196553547e-02 	 4 4 11 9
     -9.37095831447594569685e-03 	 4 4 11 10
      2.63448436993300449949e-01 	 4 4 11 11
      2.05004801019758415778e-03 	 5 1 1 1
     -2.73757124448231086485e-04 	 5 1 2 1
     -3.63608226658679182033e-03 	 5 1 2 2
      5.57435114770609362565e-04 	 5 1 3 1
     -5.32534502638212228157e-05 	 5 1 3 2
     -4.20686171262993780645e-03 	 5 1 3 3
      1.05229238436978337094e-04 	 5 1 4 1
      6.63227456353033552848e-04 	 5 1 4 2
     -2.26716478555425690394e-04 	 5 1 4 3
     -2.82125871012456298434e-03 	 5 1 4 4
      1.47596224434296376463e-03 	 5 1 5 1
     -3.85923143964026014573e-04 	 5 1 5 2
      1.44123322012630850032e-04 	 5 1 5 3
     -3.39634397362757289689e-04 	 5 1 5 4
      4.53651033320851514163e-03 	 5 1 5 5
     -3.47196987732373675908e-04 	 5 1 6 1
     -7.01682010608734046562e-05 	 5 1 6 2
     -1.55004653699696324587e-04 	 5 1 6 3
      1.80131768607988331388e-04 	 5 1 6 4
      4.14234351382140010491e-05 	 5 1 6 5
     -2.89960422479200712748e-03 	 5 1 6 6
     -3.62575473536605615531e-04 	 5 1 7 1
      2.03439967110766173342e-04 	 5 1 7 2
     -2.46557874421008912415e-04 	 5 1 7 3
      7.55165945720637134947e-04 	 5 1 7 4
     -7.96103719323141461109e-04 	 5 1 7 5
      4.90914063029108472050e-04 	 5 1 7 6
     -1.60826771639003716571e-03 	 5 1 7 7
     -5.18065795630536410463e-05 	 5 1 8 1
      3.47695367208698802568e-04 	 5 1 8 2