&FCI NORB=11,NELEC=0,MS2=0
ORBSYM=1,1,1,1,
ISYM=1,
/
      3.10651729413357891030e-01 	 1 1 1 1
      8.49591963782640193469e-04 	 1 1 2 1
      1.68327606876440466488e-01 	 1 1 2 2
     -3.93296434678928929010e-04 	 1 1 3 1
     -3.13768839748019352960e-04 	 1 1 3 2
      1.52586106851745062496e-01 	 1 1 3 3
      4.12744367580976986160e-03 	 1 1 4 1
      4.09665072562724174449e-03 	 1 1 4 2
     -1.52011965450574463785e-03 	 1 1 4 3
      2.26079670646522901123e-01 	 1 1 4 4
      2.65905845608354653165e-03 	 1 1 5 1
      3.07232661984782097226e-04 	 1 1 5 2
      1.81285800162399052954e-03 	 1 1 5 3
     -1.60211216916857903877e-04 	 1 1 5 4
      1.85079998515701088513e-01 	 1 1 5 5
     -4.15073647686431141529e-03 	 1 1 6 1
     -3.89357535717813649061e-04 	 1 1 6 2
     -2.36730195812969454808e-03 	 1 1 6 3
      1.60724019935093009187e-03 	 1 1 6 4
     -1.68487569317622330137e-04 	 1 1 6 5
      1.41805096933843438611e-01 	 1 1 6 6
      1.03972591908245686615e-03 	 1 1 7 1
     -2.60476428798777802018e-03 	 1 1 7 2
     -1.20835417828936766971e-03 	 1 1 7 3
     -5.97477128737380555612e-03 	 1 1 7 4
      1.68203979219445063677e-03 	 1 1 7 5
     -2.98026115139477930805e-04 	 1 1 7 6
      2.41007447846065786523e-01 	 1 1 7 7
     -5.69713809213088975131e-03 	 1 1 8 1
      5.59625394568926629729e-03 	 1 1 8 2
     -2.93531331539390082444e-03 	 1 1 8 3
      8.53149979782871076273e-03 	 1 1 8 4
      9.89164995834235444630e-04 	 1 1 8 5
      4.56431753851637821845e-03 	 1 1 8 6
      6.17764964197041552968e-03 	 1 1 8 7
      2.40097669416522802033e-01 	 1 1 8 8
      7.83604784569664905916e-04 	 1 1 9 1
     -7.19087302084283242105e-04 	 1 1 9 2
     -1.54234430363921269473e-03 	 1 1 9 3
      2.42059688112137997087e-03 	 1 1 9 4
      1.89212809652771466904e-04 	 1 1 9 5
      3.14438581871230452350e-03 	 1 1 9 6
      8.31912614406180635912e-04 	 1 1 9 7
      5.82706863635354312819e-03 	 1 1 9 8
      1.42713258968985373665e-01 	 1 1 9 9
      7.95553169533849582722e-05 	 1 1 10 1
      3.01927708693558753336e-03 	 1 1 10 2
     -2.94091320862002736369e-03 	 1 1 10 3
     -4.84155241856583970061e-04 	 1 1 10 4
     -3.35328760517985473115e-04 	 1 1 10 5
      1.81582411257406178828e-03 	 1 1 10 6
      1.65274170352630936365e-03 	 1 1 10 7
      2.92550252934318123083e-03 	 1 1 10 8
      1.22959414885477884977e-03 	 1 1 10 9
      2.62833388596511452473e-01 	 1 1 10 10
     -1.30529578564222547427e-03 	 1 1 11 1
      2.56755576484242334714e-03 	 1 1 11 2
     -1.63905806193729913431e-03 	 1 1 11 3
      8.37897605991013653265e-04 	 1 1 11 4
      1.53417407498179000219e-03 	 1 1 11 5
      1.61745117629644706049e-03 	 1 1 11 6
     -1.01355071153246389243e-02 	 1 1 11 7
      1.28146929419732072582e-03 	 1 1 11 8
     -4.10858831337455258480e-04 	 1 1 11 9
     -2.66737305112725543374e-03 	 1 1 11 10
      2.39606875620809595118e-01 	 1 1 11 11
      8.49591963782640410309e-04 	 2 1 1 1
      2.44595276910908928508e-03 	 2 1 2 1
      8.23038950523520725089e-03 	 2 1 2 2
     -5.29103252328571509004e-04 	 2 1 3 1
     -9.30291384474667463166e-04 	 2 1 3 2
      4.90345295651441973744e-03 	 2 1 3 3
      1.04238506890698000469e-03 	 2 1 4 1
     -9.63683786221109710095e-04 	 2 1 4 2
      9.68247624333497974337e-04 	 2 1 4 3
      4.46223991876122140499e-03 	 2 1 4 4
     -1.02815990799182103315e-04 	 2 1 5 1
     -1.10631889523143706489e-04 	 2 1 5 2
      1.74875915070616037264e-05 	 2 1 5 3
     -7.23220801212146789877e-05 	 2 1 5 4
     -5.02652175866965048034e-03 	 2 1 5 5
      2.13502233421206859352e-04 	 2 1 6 1
      1.44087437730529955389e-04 	 2 1 6 2
      5.35268590166947957031e-04 	 2 1 6 3
     -6.97443417518628540471e-05 	 2 1 6 4
     -1.15720522369952523645e-05 	 2 1 6 5
      4.24675139080248932599e-03 	 2 1 6 6
      4.64250888218590375195e-05 	 2 1 7 1
     -3.96832564861955127550e-04 	 2 1 7 2
      3.58184708354302892234e-04 	 2 1 7 3
     -1.07446910273422476141e-03 	 2 1 7 4
      7.17082964659222039591e-05 	 2 1 7 5
     -8.39647413647437814745e-04 	 2 1 7 6
      6.63037677806139254949e-03 	 2 1 7 7
      5.76613246533441248069e-04 	 2 1 8 1
     -1.82845096077257960969e-05 	 2 1 8 2
      5.09975277562510541460e-05 	 2 1 8 3
     -2.73739906857634832799e-04 	 2 1 8 4
      4.07024364659746068691e-05 	 2 1 8 5
     -4.48737453703440319561e-04 	 2 1 8 6
      4.18440078934573787307e-04 	 2 1 8 7
      3.27344410298525826178e-03 	 2 1 8 8
      2.81434073918865843044e-05 	 2 1 9 1
      2.03438848663483712017e-04 	 2 1 9 2
      3.19757881701268197473e-04 	 2 1 9 3
      1.94667658318788464305e-04 	 2 1 9 4
      1.37635959943233365132e-05 	 2 1 9 5
     -2.52743515055424243509e-04 	 2 1 9 6
     -5.22405598673006225929e-04 	 2 1 9 7
     -2.34627606429236581446e-04 	 2 1 9 8
      4.07109278759205939213e-03 	 2 1 9 9
      1.70332958915336688845e-03 	 2 1 10 1
     -6.87690118204675781069e-04 	 2 1 10 2
      2.35264769802015293694e-04 	 2 1 10 3
     -8.26095916998792977569e-04 	 2 1 10 4
      1.77147420275430020689e-04 	 2 1 10 5
     -1.44158840298823197204e-04 	 2 1 10 6
      8.06003433002302105588e-05 	 2 1 10 7
     -8.50141509670926127235e-04 	 2 1 10 8
     -1.30504238821926762384e-04 	 2 1 10 9
      3.20598309263379378786e-03 	 2 1 10 10
      1.20783984273119520542e-03 	 2 1 11 1
     -9.83593495415528723145e-05 	 2 1 11 2
      5.72717431018128657664e-05 	 2 1 11 3
     -4.95124423660449819104e-05 	 2 1 11 4
     -6.44435926849611063431e-05 	 2 1 11 5
     -5.10942587017399981776e-04 	 2 1 11 6
     -2.03669307957120206826e-03 	 2 1 11 7
     -2.03821541307616107240e-04 	 2 1 11 8
     -3.77822516751907529035e-04 	 2 1 11 9
     -7.82333241271044666290e-04 	 2 1 11 10
      1.20605130302983178103e-03 	 2 1 11 11
      1.68327606876440355466e-01 	 2 2 1 1
      8.23038950523522980229e-03 	 2 2 2 1
      6.16938560208196151713e-01 	 2 2 2 2
     -1.06296019090498967963e-02 	 2 2 3 1
      1.49325620589890436032e-03 	 2 2 3 2
      3.52659837250990093604e-01 	 2 2 3 3
      2.89535049411609925890e-03 	 2 2 4 1
     -3.86277306270213643957e-02 	 2 2 4 2
      3.93104027593942344926e-03 	 2 2 4 3
      2.79490697562628342965e-01 	 2 2 4 4
     -1.61304941197176819438e-03 	 2 2 5 1
     -1.97847645499380810075e-03 	 2 2 5 2
     -1.03860966667660066000e-03 	 2 2 5 3
     -1.26285761233722740662e-03 	 2 2 5 4
      1.18494159239797655636e-01 	 2 2 5 5
     -3.21612025096584125405e-03 	 2 2 6 1
      6.95648335290103159850e-03 	 2 2 6 2
      5.22511311956101297954e-03 	 2 2 6 3
     -3.82118709138187112335e-04 	 2 2 6 4
      7.26448191778220346733e-04 	 2 2 6 5
      3.31124723814134269695e-01 	 2 2 6 6
      1.61537261533899276916e-03 	 2 2 7 1
     -2.72998191271689840190e-03 	 2 2 7 2
      5.03309991278918459484e-03 	 2 2 7 3
     -7.26754312941427747796e-03 	 2 2 7 4
     -6.79090353083854287100e-04 	 2 2 7 5
     -8.13758403747551206653e-03 	 2 2 7 6
      1.35340057086200948877e-01 	 2 2 7 7
      3.13871724342214969417e-03 	 2 2 8 1
     -8.74699727002013587007e-03 	 2 2 8 2
      1.78463422565902727485e-03 	 2 2 8 3
     -2.77381784030032328345e-03 	 2 2 8 4
      8.03129781072764708377e-04 	 2 2 8 5
     -5.96708268668778071125e-03 	 2 2 8 6
      1.15425176738488503847e-03 	 2 2 8 7
      1.86127950256493507331e-01 	 2 2 8 8
     -1.65700368389749830289e-03 	 2 2 9 1
      7.84743959607634225528e-03 	 2 2 9 2
      1.90208147256879065053e-03 	 2 2 9 3
      4.52615675867761111523e-03 	 2 2 9 4
      1.16559128330945974204e-04 	 2 2 9 5
     -1.13211451932119025465e-02 	 2 2 9 6
     -5.13795559153563865390e-03 	 2 2 9 7
     -4.69732697343464358775e-03 	 2 2 9 8
      3.33017556883369647558e-01 	 2 2 9 9
      8.32051439477843497727e-03 	 2 2 10 1
     -2.54212738058469944757e-02 	 2 2 10 2
      2.36512977663804217429e-03 	 2 2 10 3
     -6.79769052136543032450e-03 	 2 2 10 4
     -2.71527141571212087250e-04 	 2 2 10 5
     -1.69604980338404313922e-03 	 2 2 10 6
      1.07653692291377720176e-03 	 2 2 10 7
      1.26256028313005154960e-03 	 2 2 10 8
     -1.90900794086748494191e-03 	 2 2 10 9
      1.33949140543592803976e-01 	 2 2 10 10
      3.47455570766806070074e-03 	 2 2 11 1
     -9.34826177746325530371e-03 	 2 2 11 2
      3.99943415651243198289e-03 	 2 2 11 3
     -6.17830402117684404639e-03 	 2 2 11 4
     -1.35194650437061008458e-03 	 2 2 11 5
     -1.08304843544212731771e-02 	 2 2 11 6
     -6.77803073504271505478e-03 	 2 2 11 7
     -1.70306339919385971160e-03 	 2 2 11 8
     -7.86659710958121510815e-03 	 2 2 11 9
     -1.14285282134110382710e-03 	 2 2 11 10
      1.87538308911672252366e-01 	 2 2 11 11
     -3.93296434678932777928e-04 	 3 1 1 1
     -5.29103252328572267946e-04 	 3 1 2 1
     -1.06296019090498950616e-02 	 3 1 2 2
      3.59324916650137927282e-03 	 3 1 3 1
     -1.75543243447968472714e-04 	 3 1 3 2
     -4.92860067824100328560e-03 	 3 1 3 3
     -2.58363307790204882702e-05 	 3 1 4 1
      1.67120311394253597340e-03 	 3 1 4 2
     -1.39109661716774771168e-04 	 3 1 4 3
     -1.48829766308826421523e-02 	 3 1 4 4
      4.37456613915268414678e-04 	 3 1 5 1
      1.12339786964480312851e-04 	 3 1 5 2
     -2.73543349751683676115e-04 	 3 1 5 3
      1.68323030753263523174e-04 	 3 1 5 4
      2.06834201766721136745e-03 	 3 1 5 5
     -7.54547433879241506022e-04 	 3 1 6 1
      6.44733847387666419472e-04 	 3 1 6 2
     -1.74781008285057609533e-04 	 3 1 6 3
     -3.13571497383348602242e-04 	 3 1 6 4
      1.68385013655380484470e-05 	 3 1 6 5
      1.31335711458731383555e-02 	 3 1 6 6
     -2.95681519274912352722e-04 	 3 1 7 1
      1.47310696399597084458e-04 	 3 1 7 2
      1.37783974164721348355e-04 	 3 1 7 3
      1.13592142222106997837e-03 	 3 1 7 4
      8.57702869291624911408e-05 	 3 1 7 5
     -1.04075512097614580062e-04 	 3 1 7 6
     -4.22352671083629782611e-03 	 3 1 7 7
     -6.46073453434571837520e-04 	 3 1 8 1
      2.57446228799463358410e-04 	 3 1 8 2
     -9.39044956185582118573e-05 	 3 1 8 3
      5.79071130879574985650e-04 	 3 1 8 4
      6.03052050649703614118e-05 	 3 1 8 5
      2.59667064362583885611e-04 	 3 1 8 6
     -6.22086601216449773359e-04 	 3 1 8 7
     -8.76389903488519923791e-03 	 3 1 8 8
     -1.86216320580950790362e-04 	 3 1 9 1
     -9.45748630711606069277e-05 	 3 1 9 2
     -1.47281272361359541435e-04 	 3 1 9 3
     -1.01179339842978859975e-04 	 3 1 9 4
      1.76985715391749102228e-05 	 3 1 9 5
      1.37418531033282089989e-04 	 3 1 9 6
      5.12582219296471748582e-04 	 3 1 9 7
      4.53184655578439871994e-04 	 3 1 9 8
     -9.77093008944741533983e-03 	 3 1 9 9
     -1.30437135756400696476e-03 	 3 1 10 1
      6.80618320851378039854e-04 	 3 1 10 2
      3.59045543910339621380e-04 	 3 1 10 3
      1.19666233284895871108e-03 	 3 1 10 4
      4.60303048613853543975e-05 	 3 1 10 5
     -7.65878036218317761541e-05 	 3 1 10 6
      8.27033469732955380882e-05 	 3 1 10 7
      7.57434374097930664983e-04 	 3 1 10 8
      9.90244502174362681811e-05 	 3 1 10 9
      2.18290988487857516576e-03 	 3 1 10 10
     -1.07042718532014626172e-03 	 3 1 11 1
     -1.64655258337374700746e-04 	 3 1 11 2
      2.51982812022051366405e-04 	 3 1 11 3
      2.38718256543957532429e-05 	 3 1 11 4
      3.56052174762099525335e-04 	 3 1 11 5
      4.20883139012228613525e-06 	 3 1 11 6
      1.25033818734869941504e-03 	 3 1 11 7
      6.44311875637928761079e-04 	 3 1 11 8
      6.23822438730596128681e-04 	 3 1 11 9
      2.56367152840861515454e-04 	 3 1 11 10
     -3.12878471999468443787e-03 	 3 1 11 11
     -3.13768839748013931949e-04 	 3 2 1 1
     -9.30291384474667896846e-04 	 3 2 2 1
      1.49325620589889677091e-03 	 3 2 2 2
     -1.75543243447967876403e-04 	 3 2 3 1
      2.84259812374040897812e-03 	 3 2 3 2
      1.70174734828664581641e-03 	 3 2 3 3
     -2.49817470737630459125e-04 	 3 2 4 1
     -4.37616622757077073161e-04 	 3 2 4 2
     -1.66288593495210099658e-03 	 3 2 4 3
      1.40324955890277981892e-03 	 3 2 4 4
     -2.35376391658002007557e-05 	 3 2 5 1
      4.59798110033744232886e-05 	 3 2 5 2
     -7.36923989062392125469e-06 	 3 2 5 3
      4.56573365932625192137e-05 	 3 2 5 4
     -1.98172251533241779511e-03 	 3 2 5 5
      9.43816954971942768948e-05 	 3 2 6 1
      7.45286168160018685103e-05 	 3 2 6 2
     -4.09928537624424738431e-05 	 3 2 6 3
     -1.49924294511638068767e-04 	 3 2 6 4
     -1.25761466550994697354e-05 	 3 2 6 5
      5.48018700435324917705e-04 	 3 2 6 6
      1.26975822316113622600e-04 	 3 2 7 1
      1.55876146783990936987e-05 	 3 2 7 2
      9.29181930892819974311e-05 	 3 2 7 3
     -3.11222837521469924103e-04 	 3 2 7 4
     -5.56930670650400416744e-05 	 3 2 7 5
     -1.77716930285251031515e-04 	 3 2 7 6
     -1.16033402902351095109e-04 	 3 2 7 7
      7.61426666406121824575e-05 	 3 2 8 1
     -2.60971297338606189175e-04 	 3 2 8 2
      2.63945527378855668288e-04 	 3 2 8 3
     -2.66699585632186749427e-04 	 3 2 8 4
      2.55463656662612195313e-05 	 3 2 8 5
     -1.10932453319073970788e-04 	 3 2 8 6
      9.51251028197988530511e-05 	 3 2 8 7
      8.68283540525528817026e-04 	 3 2 8 8
      1.65384202949769431191e-04 	 3 2 9 1
      5.50309845771110637104e-05 	 3 2 9 2
     -3.95137413382785652191e-05 	 3 2 9 3
     -5.30631133231885914175e-05 	 3 2 9 4
     -7.87412870738981279632e-06 	 3 2 9 5
     -5.39392033262847637662e-05 	 3 2 9 6
     -1.16786846851973680770e-04 	 3 2 9 7
     -7.69287731396480796561e-05 	 3 2 9 8
      1.88688799354789550101e-03 	 3 2 9 9
      3.39329992952071778610e-04 	 3 2 10 1
     -4.76651883406789913557e-04 	 3 2 10 2
      5.47846652878005333192e-05 	 3 2 10 3
     -3.95437729633814360770e-04 	 3 2 10 4
      1.97666255337836121618e-05 	 3 2 10 5
     -5.38689775359019019734e-05 	 3 2 10 6
     -1.09911641406585367832e-04 	 3 2 10 7
     -1.69861807097919874756e-04 	 3 2 10 8
     -4.63327982925103185009e-05 	 3 2 10 9
     -4.73571237227582734694e-04 	 3 2 10 10
      2.08438939540898530772e-04 	 3 2 11 1
     -2.29224005217387136494e-04 	 3 2 11 2
      2.99784604224377713554e-04 	 3 2 11 3
     -3.49711542282633294169e-04 	 3 2 11 4
     -3.50930964695372782001e-05 	 3 2 11 5
     -1.50104667783449845795e-04 	 3 2 11 6
     -4.85329517798375412868e-04 	 3 2 11 7
     -6.17851552158848690323e-05 	 3 2 11 8
     -1.38789494700152155667e-04 	 3 2 11 9
     -1.93794557945350411337e-04 	 3 2 11 10
     -3.23286831106541018067e-05 	 3 2 11 11
      1.52586106851745090252e-01 	 3 3 1 1
      4.90345295651443448259e-03 	 3 3 2 1
      3.52659837250989982582e-01 	 3 3 2 2
     -4.92860067824100848977e-03 	 3 3 3 1
      1.70174734828665102059e-03 	 3 3 3 2
      4.61098311931386839468e-01 	 3 3 3 3
      3.07588308357636909182e-03 	 3 3 4 1
     -2.23013287740929724845e-02 	 3 3 4 2
      7.56001997025031007016e-03 	 3 3 4 3
      2.41284457542585900613e-01 	 3 3 4 4
     -1.49912061937609343565e-03 	 3 3 5 1
     -9.08620465523012565100e-04 	 3 3 5 2
     -1.38669759951058559240e-03 	 3 3 5 3
     -1.13020513369475059454e-03 	 3 3 5 4
      1.05360883806587146694e-01 	 3 3 5 5
     -3.62439044331303505606e-03 	 3 3 6 1
      4.29133389453065314939e-03 	 3 3 6 2
      7.75820864540534543136e-03 	 3 3 6 3
     -2.74972326505994613816e-03 	 3 3 6 4
      7.21286592963715257609e-04 	 3 3 6 5
      3.54123063482314259787e-01 	 3 3 6 6
      2.04240007293212408671e-03 	 3 3 7 1
     -1.58561624961331372116e-03 	 3 3 7 2
      8.31696485276201338821e-03 	 3 3 7 3
     -6.60789161076414180429e-03 	 3 3 7 4
     -7.25766080720442025541e-04 	 3 3 7 5
     -9.68819737252165323615e-03 	 3 3 7 6
      1.26534698260335254361e-01 	 3 3 7 7
      2.73164873341230933154e-03 	 3 3 8 1
     -4.52080102544241690943e-03 	 3 3 8 2
      4.45524254693059618138e-03 	 3 3 8 3
     -1.82990848107026553640e-03 	 3 3 8 4
      6.73283476850154304245e-04 	 3 3 8 5
     -7.01920503110278672793e-03 	 3 3 8 6
      1.40823165678661816995e-03 	 3 3 8 7
      1.77325542609378716818e-01 	 3 3 8 8
     -3.19023585433214499144e-03 	 3 3 9 1
      8.64275533204475997218e-03 	 3 3 9 2
      2.73019466365728626783e-03 	 3 3 9 3
      5.25261986115647646137e-04 	 3 3 9 4
      4.16411798462382090179e-04 	 3 3 9 5
     -9.53620191996084123898e-03 	 3 3 9 6
     -1.02213885042054478808e-02 	 3 3 9 7
     -5.46150347702562162511e-03 	 3 3 9 8
      4.68814470720726406139e-01 	 3 3 9 9
      8.33634823127649658703e-03 	 3 3 10 1
     -1.21411525467822554308e-02 	 3 3 10 2
      6.31533368433882715681e-03 	 3 3 10 3
     -6.20479746198873607227e-03 	 3 3 10 4
     -1.93067745571519724154e-04 	 3 3 10 5
     -1.54114734332615231985e-03 	 3 3 10 6
      8.26910035598748269572e-04 	 3 3 10 7
     -5.64886802348172099375e-05 	 3 3 10 8
     -2.45919920774209958478e-03 	 3 3 10 9
      1.19611557901860079967e-01 	 3 3 10 10
      4.15502645695054514258e-03 	 3 3 11 1
     -4.19487034130842061097e-03 	 3 3 11 2
      7.96459613150030630579e-03 	 3 3 11 3
     -4.82715875307599632388e-03 	 3 3 11 4
     -1.17383997581080225941e-03 	 3 3 11 5
     -1.05147675501894074385e-02 	 3 3 11 6
     -6.46464788909921744126e-03 	 3 3 11 7
     -1.64364179057068090714e-03 	 3 3 11 8
     -1.19450417556753729631e-02 	 3 3 11 9
     -1.31887862618666599525e-03 	 3 3 11 10
      1.66843403543440266246e-01 	 3 3 11 11
      4.12744367580977246368e-03 	 4 1 1 1
      1.04238506890698108889e-03 	 4 1 2 1
      2.89535049411608277903e-03 	 4 1 2 2
     -2.58363307790179099019e-05 	 4 1 3 1
     -2.49817470737630567545e-04 	 4 1 3 2
      3.07588308357635824980e-03 	 4 1 3 3
      6.05204515122727704918e-03 	 4 1 4 1
     -6.12164423213557625653e-05 	 4 1 4 2
      9.17866501889618444446e-04 	 4 1 4 3
      4.03989536662766480363e-03 	 4 1 4 4
      2.28874046145864857345e-04 	 4 1 5 1
      1.01843327676541923571e-05 	 4 1 5 2
      9.76560723579738079476e-05 	 4 1 5 3
     -3.15555837160128623952e-04 	 4 1 5 4
     -4.71340140092083720313e-03 	 4 1 5 5
     -2.88536573297808575725e-04 	 4 1 6 1
     -7.97275441285544942695e-06 	 4 1 6 2
      1.70235750403064121710e-04 	 4 1 6 3
      7.97543663170540920041e-05 	 4 1 6 4
     -9.56193856865234160158e-06 	 4 1 6 5
      1.91368858270099767398e-03 	 4 1 6 6
      2.18436343738865483327e-05 	 4 1 7 1
     -3.34694044486442650928e-04 	 4 1 7 2
      2.80744706954400762098e-04 	 4 1 7 3
     -4.83359001948637640161e-04 	 4 1 7 4
      2.65215271636369878932e-04 	 4 1 7 5
     -4.17457252649768061417e-04 	 4 1 7 6
      1.14013000370737386732e-03 	 4 1 7 7
      1.64454654636983016924e-04 	 4 1 8 1
      1.70189547454605424805e-05 	 4 1 8 2
     -3.59367987624283817625e-04 	 4 1 8 3
      9.39504285242777608528e-04 	 4 1 8 4
     -3.83669304225190777122e-05 	 4 1 8 5
     -1.93166892982764813735e-04 	 4 1 8 6
      2.09304091457411712727e-04 	 4 1 8 7
      3.13746986223631570134e-03 	 4 1 8 8
      1.31765859399826418437e-04 	 4 1 9 1
      9.89917850236693484898e-05 	 4 1 9 2
      1.93169498434504532860e-04 	 4 1 9 3
      3.16266893761604815996e-04 	 4 1 9 4
      2.38214084578970163356e-05 	 4 1 9 5
     -6.57201260643361357240e-05 	 4 1 9 6
     -3.01806218448913367216e-04 	 4 1 9 7
      5.32552355218726049149e-05 	 4 1 9 8
      2.97169153566601701444e-03 	 4 1 9 9
      2.17983458255229515426e-04 	 4 1 10 1
     -4.97435949327021463377e-04 	 4 1 10 2
      4.86735992167370269353e-05 	 4 1 10 3
      4.13504295353434557243e-04 	 4 1 10 4
      1.23545283864023999146e-04 	 4 1 10 5
     -1.87564205038257133477e-04 	 4 1 10 6
     -1.68018722328604783265e-04 	 4 1 10 7
     -4.84770250223383227916e-04 	 4 1 10 8
     -1.77172108674419361528e-04 	 4 1 10 9
      4.28282084795884778611e-03 	 4 1 10 10
      3.00128368418875143310e-04 	 4 1 11 1
     -1.38035958980728298536e-04 	 4 1 11 2
     -3.36261013953896223394e-04 	 4 1 11 3
      4.90535509520539101183e-04 	 4 1 11 4
      5.98120160259311883159e-05 	 4 1 11 5
     -2.78648727306787921589e-04 	 4 1 11 6
     -8.46040440603220735005e-04 	 4 1 11 7
     -1.80284945954974572778e-04 	 4 1 11 8
     -2.77106802806709401690e-04 	 4 1 11 9
     -9.04305824092165055385e-04 	 4 1 11 10
      5.86047351969204780020e-04 	 4 1 11 11
      4.09665072562724868338e-03 	 4 2 1 1
     -9.63683786221112529020e-04 	 4 2 2 1
     -3.86277306270213505179e-02 	 4 2 2 2
      1.67120311394254226177e-03 	 4 2 3 1
     -4.37616622757076151589e-04 	 4 2 3 2
     -2.23013287740930453429e-02 	 4 2 3 3
     -6.12164423213718087574e-05 	 4 2 4 1
      7.92388343078117424190e-03 	 4 2 4 2
     -3.64480321166631355320e-04 	 4 2 4 3
     -2.09943745970088135877e-02 	 4 2 4 4
      3.65955468025383424870e-04 	 4 2 5 1
      2.18673032175001769845e-04 	 4 2 5 2
      1.74160034483672020861e-04 	 4 2 5 3
      7.90723804520738479196e-05 	 4 2 5 4
      1.06801535295081538590e-02 	 4 2 5 5
      2.35403323832808634216e-05 	 4 2 6 1
      1.44910848961906860703e-05 	 4 2 6 2
     -6.72915862968096346181e-04 	 4 2 6 3
     -5.05804984426289411443e-05 	 4 2 6 4
     -8.02798611084158637375e-05 	 4 2 6 5
     -1.63372568517600076643e-02 	 4 2 6 6
     -4.60715264723447640114e-04 	 4 2 7 1
      2.92284563136957389710e-04 	 4 2 7 2
     -7.49281123855946844942e-04 	 4 2 7 3
      1.74178889727207952647e-03 	 4 2 7 4
      1.14647457827359467320e-04 	 4 2 7 5
      1.29922899803075345485e-03 	 4 2 7 6
      3.62505400404949896728e-03 	 4 2 7 7
     -5.96695161919420964669e-04 	 4 2 8 1
      6.69416204168046119483e-04 	 4 2 8 2
     -5.40970842986987715886e-04 	 4 2 8 3
      1.77138696705127782552e-03 	 4 2 8 4
     -3.11462355544807471648e-06 	 4 2 8 5
      1.11465482030901805698e-03 	 4 2 8 6
      1.73349362472793909820e-04 	 4 2 8 7
     -3.71305201192235470251e-03 	 4 2 8 8
      3.33539039104518362762e-05 	 4 2 9 1
     -7.63994439818641701964e-05 	 4 2 9 2
     -2.31419654863133217705e-04 	 4 2 9 3
     -7.45976492451717290884e-04 	 4 2 9 4
      2.14234557398232647915e-05 	 4 2 9 5
      1.25891580072367225383e-03 	 4 2 9 6
      7.95709670881004308557e-04 	 4 2 9 7
      1.06583793218668920234e-03 	 4 2 9 8
     -1.80917824895975194732e-02 	 4 2 9 9
     -1.55946121364074858848e-03 	 4 2 10 1
      2.46700330079911408013e-03 	 4 2 10 2
     -5.44815659549051042355e-04 	 4 2 10 3
      1.98017934235679123403e-03 	 4 2 10 4
     -3.17266731150867885096e-05 	 4 2 10 5
      3.67841449486362508884e-04 	 4 2 10 6
      4.48312437307667210114e-04 	 4 2 10 7
      6.61611681936005702719e-04 	 4 2 10 8
      3.90224006663198363844e-04 	 4 2 10 9
      7.81511397983679009793e-03 	 4 2 10 10
     -8.62030765479753109670e-04 	 4 2 11 1
      3.73560198170150585453e-04 	 4 2 11 2
     -6.90070285109966978510e-04 	 4 2 11 3
      1.88397473518295667863e-03 	 4 2 11 4
      2.66375320337193792920e-04 	 4 2 11 5
      1.54065961487495303207e-03 	 4 2 11 6
      1.67615265698152818806e-03 	 4 2 11 7
      5.14702806371338862125e-04 	 4 2 11 8
      9.44668610869820184368e-04 	 4 2 11 9
      4.45040050090834428918e-04 	 4 2 11 10
      1.44233147462110721133e-03 	 4 2 11 11
     -1.52011965450573878315e-03 	 4 3 1 1
      9.68247624333499817481e-04 	 4 3 2 1
      3.93104027593942952079e-03 	 4 3 2 2
     -1.39109661716774229067e-04 	 4 3 3 1
     -1.66288593495210012922e-03 	 4 3 3 2
      7.56001997025030486599e-03 	 4 3 3 3
      9.17866501889625383340e-04 	 4 3 4 1
     -3.64480321166619645936e-04 	 4 3 4 2
      5.13678802509965563156e-03 	 4 3 4 3
      2.74323931817368506236e-03 	 4 3 4 4
     -8.57073299113845317107e-05 	 4 3 5 1
     -4.68873880804758158482e-05 	 4 3 5 2
     -1.93107346666244206212e-05 	 4 3 5 3
     -2.41162872520075754297e-04 	 4 3 5 4
     -6.43269301383946837808e-03 	 4 3 5 5
     -1.67478205401704208579e-05 	 4 3 6 1
     -1.09565207782590570544e-04 	 4 3 6 2
      4.41809944270300444802e-04 	 4 3 6 3
     -2.30667309155816173828e-04 	 4 3 6 4
      2.30037321208124978522e-06 	 4 3 6 5
      3.49996795223178223597e-03 	 4 3 6 6
      2.95004601948673818301e-04 	 4 3 7 1
     -3.70242645888461052121e-04 	 4 3 7 2
      3.12704568304056882994e-04 	 4 3 7 3
     -9.62620761644771959914e-04 	 4 3 7 4
     -2.71203831688541602231e-05 	 4 3 7 5
     -5.32652553919888034628e-04 	 4 3 7 6
     -1.60777751575906188188e-03 	 4 3 7 7
      1.24679259782673688408e-04 	 4 3 8 1
     -1.74005223694562952824e-04 	 4 3 8 2
     -2.40200100728301985283e-04 	 4 3 8 3
      9.56021038144576514040e-05 	 4 3 8 4
      2.19396802625828340084e-05 	 4 3 8 5
     -4.51802341595906029915e-04 	 4 3 8 6
      5.35544588920244934841e-05 	 4 3 8 7
      2.70076820564447289685e-04 	 4 3 8 8
      1.51660511968148443601e-06 	 4 3 9 1
      1.49183420292795220754e-04 	 4 3 9 2
      3.67455684227293297769e-04 	 4 3 9 3
     -4.24466307412867891726e-05 	 4 3 9 4
     -5.34671183808377912356e-06 	 4 3 9 5
     -2.46262884726804100882e-04 	 4 3 9 6
     -4.41376623352170659436e-04 	 4 3 9 7
     -3.24529997523981923128e-04 	 4 3 9 8
      8.71989442762306082857e-03 	 4 3 9 9
      2.95248178033209068317e-04 	 4 3 10 1
     -2.80685288229633005119e-04 	 4 3 10 2
      5.03882850344018829781e-05 	 4 3 10 3
      2.44342694974871013159e-05 	 4 3 10 4
      6.31584345746217384887e-05 	 4 3 10 5
     -2.30798371638694449970e-04 	 4 3 10 6
     -3.15982932490883688080e-04 	 4 3 10 7
     -5.65404620314675205282e-04 	 4 3 10 8
     -2.43167246126274903600e-04 	 4 3 10 9
     -2.36769635013416241201e-03 	 4 3 10 10
      3.41543065736509151263e-04 	 4 3 11 1
     -3.23513297641301461605e-04 	 4 3 11 2
     -1.87900138197231368576e-04 	 4 3 11 3
     -2.35119085662304963926e-04 	 4 3 11 4
     -1.98800355576492357099e-04 	 4 3 11 5
     -4.71811913759281442281e-04 	 4 3 11 6
     -8.86980604497079015702e-04 	 4 3 11 7
     -1.64933494140783359948e-04 	 4 3 11 8
     -4.30897315706834282880e-04 	 4 3 11 9
     -5.08938864615640705440e-04 	 4 3 11 10
     -1.98755791886708228777e-03 	 4 3 11 11
      2.26079670646522762345e-01 	 4 4 1 1
      4.46223991876120492511e-03 	 4 4 2 1
      2.79490697562628065409e-01 	 4 4 2 2
     -1.48829766308825797022e-02 	 4 4 3 1
      1.40324955890278610729e-03 	 4 4 3 2
      2.41284457542585567547e-01 	 4 4 3 3
      4.03989536662765266056e-03 	 4 4 4 1
     -2.09943745970086401154e-02 	 4 4 4 2
      2.74323931817364646477e-03 	 4 4 4 3
      4.68582303562439517197e-01 	 4 4 4 4
     -1.55214354038160466664e-03 	 4 4 5 1
     -7.52037809018669001909e-04 	 4 4 5 2
      5.26683619760579999590e-04 	 4 4 5 3
     -3.32294551917433405794e-03 	 4 4 5 4
      1.59401529190564938965e-01 	 4 4 5 5
     -6.59554922998841007369e-04 	 4 4 6 1
      1.49693797250511896569e-04 	 4 4 6 2
      2.80383089675344666751e-04 	 4 4 6 3
      7.01268954713282289051e-04 	 4 4 6 4
      4.28507285223893828741e-04 	 4 4 6 5
      2.00335887077290636382e-01 	 4 4 6 6
      2.88261772999808809845e-03 	 4 4 7 1
     -9.92993201040735448681e-04 	 4 4 7 2
     -1.41941812115792547096e-03 	 4 4 7 3
     -1.31455158987387986380e-02 	 4 4 7 4
     -6.31810720764584094963e-04 	 4 4 7 5
     -2.46010218886695856619e-03 	 4 4 7 6
      1.86392234212750584899e-01 	 4 4 7 7
      2.56451781292848851254e-03 	 4 4 8 1
      2.55712937862706112674e-03 	 4 4 8 2
      9.89472141296527350762e-04 	 4 4 8 3
     -4.12395269565061920510e-04 	 4 4 8 4
      1.01031052604808979471e-03 	 4 4 8 5
     -2.32120848230569359893e-03 	 4 4 8 6
      4.75732321629302682547e-03 	 4 4 8 7
      2.66369188986208094150e-01 	 4 4 8 8
      4.80503172545304071094e-04 	 4 4 9 1
      6.01224159388187044868e-05 	 4 4 9 2
     -4.86274263982130181862e-04 	 4 4 9 3
      6.08191005514536770643e-03 	 4 4 9 4
     -1.17764768581251193257e-04 	 4 4 9 5
     -2.07729675637940850233e-03 	 4 4 9 6
     -6.00176030766756663480e-04 	 4 4 9 7
     -1.02196840103897118070e-03 	 4 4 9 8
      1.99515429885311179614e-01 	 4 4 9 9
      9.81437750503755777787e-03 	 4 4 10 1
     -4.37686202214808851158e-03 	 4 4 10 2
      2.37290381023767604296e-04 	 4 4 10 3
     -1.93387672517028527674e-02 	 4 4 10 4
     -7.08417665787885141027e-04 	 4 4 10 5
      6.64581499129861166114e-04 	 4 4 10 6
      3.55451362901891727841e-03 	 4 4 10 7
     -3.81334962644540732390e-04 	 4 4 10 8
      2.39094650520270190575e-04 	 4 4 10 9
      1.83983421509729239141e-01 	 4 4 10 10
      4.42713612236252454513e-03 	 4 4 11 1
      2.75733451980091602562e-03 	 4 4 11 2
      2.21166268596178897977e-04 	 4 4 11 3
     -3.15274780895867827099e-03 	 4 4 11 4
     -2.63817526411048476620e-03 	 4 4 11 5
     -6.53791110212912501831e-03 	 4 4 11 6
     -1.15643927384605112174e-02 	 4 4 11 7
     -6.74649011023091636080e-03 	 4 4 11 8
     -5.66793418306972811987e-03 	 4 4 11 9
     -4.21326398582631649059e-03 	 4 4 11 10
      2.71314283903607234016e-01 	 4 4 11 11
      2.65905845608355000109e-03 	 5 1 1 1
     -1.02815990799181872922e-04 	 5 1 2 1
     -1.61304941197177123015e-03 	 5 1 2 2
      4.37456613915268252048e-04 	 5 1 3 1
     -2.35376391657999364815e-05 	 5 1 3 2
     -1.49912061937608758096e-03 	 5 1 3 3
      2.28874046145865372342e-04 	 5 1 4 1
      3.65955468025384942753e-04 	 5 1 4 2
     -8.57073299113839489520e-05 	 5 1 4 3
     -1.55214354038161095502e-03 	 5 1 4 4
      1.43251954853990722677e-03 	 5 1 5 1
     -3.99862740806206594900e-04 	 5 1 5 2
      1.44884597074663545695e-04 	 5 1 5 3
     -3.53585518040507799497e-04 	 5 1 5 4
      2.10739857278522801226e-03 	 5 1 5 5
     -3.35656208386908138513e-04 	 5 1 6 1
     -5.10006644219884559756e-05 	 5 1 6 2
     -8.63529152257239726413e-05 	 5 1 6 3
      1.17556544826490723312e-04 	 5 1 6 4
      3.81499440815408590575e-05 	 5 1 6 5
     -1.64148678456189152548e-03 	 5 1 6 6
     -1.86107834588718039359e-04 	 5 1 7 1
      6.15767381264031334054e-05 	 5 1 7 2
     -8.50414549915998852587e-05 	 5 1 7 3
      3.23230253903998554759e-04 	 5 1 7 4
     -7.70953474384468884391e-04 	 5 1 7 5
      2.38046419179244650357e-04 	 5 1 7 6
     -5.30658780315091879731e-04 	 5 1 7 7
     -9.66388577408727186347e-05 	 5 1 8 1
      2.61562415729858755396e-04 	 5 1 8 2