&FCI NORB=30,NELEC=0,MS2=0
ORBSYM=1,1,1,1,
ISYM=1,
/
      1.36000000000000009770e-01 	 1 1 1 1
  -0.0000000000e+00 	 1 1 0 0
  0.0000000000e+00 	 0 0 0 0
