[Molden Format]
[Atoms] (AU)
C    1    6          -0.9668184617         2.3515487807         1.3835441775
C    2    6           1.6185515474         2.3657551559         1.3567255056
C    3    6           2.8801669695         0.0466042831         1.3491279940
H    4    1          -2.0254167700         4.1057745321         1.4095952994
H    5    1           2.7138904213         4.0892196998         1.3456721006
N    6    7           5.6853158499         0.0871109027         1.3205855895
O    7    8           6.7559547749        -2.0461352901         1.3212487133
O    8    8           6.6936260515         2.2504197659         1.3024030604
C    9    6          -0.8984985317        -2.3685879516         1.4024009797
H   10    1          -1.9059294438        -4.1524425300         1.4417585892
C   11    6           1.6860660006        -2.3081262398         1.3758449986
H   12    1           2.8309012425        -3.9991228889         1.3788447310
C   13    6          -2.3959961828        -0.0299366737         1.3457257878
H   14    1          -3.9996446448        -0.0477972501         2.6515909423
BR  15   35          -3.9967083694        -0.0655109947        -2.1200347609
[GTO]
  1 0
 s    6  1.00
     4563.2400000000         0.0019666500
      682.0240000000         0.0152306000
      154.9730000000         0.0761269000
       44.4553000000         0.2608010000
       13.0290000000         0.6164620000
        1.8277300000         0.2210060000
 s    3  1.00
       20.9642000000         0.1146600000
        4.8033100000         0.9199990000
        1.4593300000        -0.0030306800
 p    3  1.00
       20.9642000000         0.0402487000
        4.8033100000         0.2375940000
        1.4593300000         0.8158540000
 s    1  1.00
        0.4834560000         1.0000000000
 p    1  1.00
        0.4834560000         1.0000000000
 s    1  1.00
        0.1455850000         1.0000000000
 p    1  1.00
        0.1455850000         1.0000000000
 d    1  1.00
        0.6260000000         1.0000000000

  2 0
 s    6  1.00
     4563.2400000000         0.0019666500
      682.0240000000         0.0152306000
      154.9730000000         0.0761269000
       44.4553000000         0.2608010000
       13.0290000000         0.6164620000
        1.8277300000         0.2210060000
 s    3  1.00
       20.9642000000         0.1146600000
        4.8033100000         0.9199990000
        1.4593300000        -0.0030306800
 p    3  1.00
       20.9642000000         0.0402487000
        4.8033100000         0.2375940000
        1.4593300000         0.8158540000
 s    1  1.00
        0.4834560000         1.0000000000
 p    1  1.00
        0.4834560000         1.0000000000
 s    1  1.00
        0.1455850000         1.0000000000
 p    1  1.00
        0.1455850000         1.0000000000
 d    1  1.00
        0.6260000000         1.0000000000

  3 0
 s    6  1.00
     4563.2400000000         0.0019666500
      682.0240000000         0.0152306000
      154.9730000000         0.0761269000
       44.4553000000         0.2608010000
       13.0290000000         0.6164620000
        1.8277300000         0.2210060000
 s    3  1.00
       20.9642000000         0.1146600000
        4.8033100000         0.9199990000
        1.4593300000        -0.0030306800
 p    3  1.00
       20.9642000000         0.0402487000
        4.8033100000         0.2375940000
        1.4593300000         0.8158540000
 s    1  1.00
        0.4834560000         1.0000000000
 p    1  1.00
        0.4834560000         1.0000000000
 s    1  1.00
        0.1455850000         1.0000000000
 p    1  1.00
        0.1455850000         1.0000000000
 d    1  1.00
        0.6260000000         1.0000000000

  4 0
 s    3  1.00
       33.8650000000         0.0254938000
        5.0947900000         0.1903730000
        1.1587900000         0.8521610000
 s    1  1.00
        0.3258400000         1.0000000000
 s    1  1.00
        0.1027410000         1.0000000000

  5 0
 s    3  1.00
       33.8650000000         0.0254938000
        5.0947900000         0.1903730000
        1.1587900000         0.8521610000
 s    1  1.00
        0.3258400000         1.0000000000
 s    1  1.00
        0.1027410000         1.0000000000

  6 0
 s    6  1.00
     6293.4800000000         0.0019697900
      949.0440000000         0.0149613000
      218.7760000000         0.0735006000
       63.6916000000         0.2489370000
       18.8282000000         0.6024600000
        2.7202300000         0.2562020000
 s    3  1.00
       30.6331000000         0.1119060000
        7.0261400000         0.9216660000
        2.1120500000        -0.0025691900
 p    3  1.00
       30.6331000000         0.0383119000
        7.0261400000         0.2374030000
        2.1120500000         0.8175920000
 s    1  1.00
        0.6840090000         1.0000000000
 p    1  1.00
        0.6840090000         1.0000000000
 s    1  1.00
        0.2008780000         1.0000000000
 p    1  1.00
        0.2008780000         1.0000000000
 d    1  1.00
        0.9130000000         1.0000000000

  7 0
 s    6  1.00
     8588.5000000000         0.0018951500
     1297.2300000000         0.0143859000
      299.2960000000         0.0707320000
       87.3771000000         0.2400010000
       25.6789000000         0.5947970000
        3.7400400000         0.2808020000
 s    3  1.00
       42.1175000000         0.1138890000
        9.6283700000         0.9208110000
        2.8533200000        -0.0032744700
 p    3  1.00
       42.1175000000         0.0365114000
        9.6283700000         0.2371530000
        2.8533200000         0.8197020000
 s    1  1.00
        0.9056610000         1.0000000000
 p    1  1.00
        0.9056610000         1.0000000000
 s    1  1.00
        0.2556110000         1.0000000000
 p    1  1.00
        0.2556110000         1.0000000000
 d    1  1.00
        1.2920000000         1.0000000000

  8 0
 s    6  1.00
     8588.5000000000         0.0018951500
     1297.2300000000         0.0143859000
      299.2960000000         0.0707320000
       87.3771000000         0.2400010000
       25.6789000000         0.5947970000
        3.7400400000         0.2808020000
 s    3  1.00
       42.1175000000         0.1138890000
        9.6283700000         0.9208110000
        2.8533200000        -0.0032744700
 p    3  1.00
       42.1175000000         0.0365114000
        9.6283700000         0.2371530000
        2.8533200000         0.8197020000
 s    1  1.00
        0.9056610000         1.0000000000
 p    1  1.00
        0.9056610000         1.0000000000
 s    1  1.00
        0.2556110000         1.0000000000
 p    1  1.00
        0.2556110000         1.0000000000
 d    1  1.00
        1.2920000000         1.0000000000

  9 0
 s    6  1.00
     4563.2400000000         0.0019666500
      682.0240000000         0.0152306000
      154.9730000000         0.0761269000
       44.4553000000         0.2608010000
       13.0290000000         0.6164620000
        1.8277300000         0.2210060000
 s    3  1.00
       20.9642000000         0.1146600000
        4.8033100000         0.9199990000
        1.4593300000        -0.0030306800
 p    3  1.00
       20.9642000000         0.0402487000
        4.8033100000         0.2375940000
        1.4593300000         0.8158540000
 s    1  1.00
        0.4834560000         1.0000000000
 p    1  1.00
        0.4834560000         1.0000000000
 s    1  1.00
        0.1455850000         1.0000000000
 p    1  1.00
        0.1455850000         1.0000000000
 d    1  1.00
        0.6260000000         1.0000000000

  10 0
 s    3  1.00
       33.8650000000         0.0254938000
        5.0947900000         0.1903730000
        1.1587900000         0.8521610000
 s    1  1.00
        0.3258400000         1.0000000000
 s    1  1.00
        0.1027410000         1.0000000000

  11 0
 s    6  1.00
     4563.2400000000         0.0019666500
      682.0240000000         0.0152306000
      154.9730000000         0.0761269000
       44.4553000000         0.2608010000
       13.0290000000         0.6164620000
        1.8277300000         0.2210060000
 s    3  1.00
       20.9642000000         0.1146600000
        4.8033100000         0.9199990000
        1.4593300000        -0.0030306800
 p    3  1.00
       20.9642000000         0.0402487000
        4.8033100000         0.2375940000
        1.4593300000         0.8158540000
 s    1  1.00
        0.4834560000         1.0000000000
 p    1  1.00
        0.4834560000         1.0000000000
 s    1  1.00
        0.1455850000         1.0000000000
 p    1  1.00
        0.1455850000         1.0000000000
 d    1  1.00
        0.6260000000         1.0000000000

  12 0
 s    3  1.00
       33.8650000000         0.0254938000
        5.0947900000         0.1903730000
        1.1587900000         0.8521610000
 s    1  1.00
        0.3258400000         1.0000000000
 s    1  1.00
        0.1027410000         1.0000000000

  13 0
 s    6  1.00
     4563.2400000000         0.0019666500
      682.0240000000         0.0152306000
      154.9730000000         0.0761269000
       44.4553000000         0.2608010000
       13.0290000000         0.6164620000
        1.8277300000         0.2210060000
 s    3  1.00
       20.9642000000         0.1146600000
        4.8033100000         0.9199990000
        1.4593300000        -0.0030306800
 p    3  1.00
       20.9642000000         0.0402487000
        4.8033100000         0.2375940000
        1.4593300000         0.8158540000
 s    1  1.00
        0.4834560000         1.0000000000
 p    1  1.00
        0.4834560000         1.0000000000
 s    1  1.00
        0.1455850000         1.0000000000
 p    1  1.00
        0.1455850000         1.0000000000
 d    1  1.00
        0.6260000000         1.0000000000

  14 0
 s    3  1.00
       33.8650000000         0.0254938000
        5.0947900000         0.1903730000
        1.1587900000         0.8521610000
 s    1  1.00
        0.3258400000         1.0000000000
 s    1  1.00
        0.1027410000         1.0000000000

  15 0
 s    6  1.00
   439700.0000000000         0.0008130000
    66030.0000000000         0.0062850000
    15140.0000000000         0.0319200000
     4317.0000000000         0.1288000000
     1414.0000000000         0.3946000000
      523.9000000000         0.5413000000
 s    3  1.00
      523.9000000000         0.1831000000
      207.7000000000         0.6176000000
       86.5400000000         0.2538000000
 s    1  1.00
       30.5200000000         1.0000000000
 s    1  1.00
       12.9800000000         1.0000000000
 s    1  1.00
        4.4120000000         1.0000000000
 s    1  1.00
        1.8620000000         1.0000000000
 s    1  1.00
        0.3932000000         1.0000000000
 s    1  1.00
        0.1400000000         1.0000000000
 p    3  1.00
     2957.0000000000         0.0222600000
      700.3000000000         0.1802000000
      224.6000000000         0.8624000000
 p    3  1.00
       82.5900000000         0.3440000000
       33.1900000000         0.5071000000
       14.2000000000         0.2590000000
 p    3  1.00
       14.2000000000         0.0796500000
        7.4380000000         0.3734000000
        3.5260000000         0.6049000000
 p    1  1.00
        1.5950000000         1.0000000000
 p    1  1.00
        0.8462000000         1.0000000000
 p    1  1.00
        0.3186000000         1.0000000000
 p    1  1.00
        0.1096000000         1.0000000000
 d    4  1.00
      134.8000000000         0.0183100000
       36.3900000000         0.1350000000
       12.1600000000         0.4261000000
        4.3410000000         0.6043000000
 d    1  1.00
        1.5350000000         1.0000000000
 d    1  1.00
        0.4510000000         1.0000000000

[5D]
[9G]

[MO]
 Sym= A
 Ene=        -4.9022802280e+02
 Spin= Alpha
 Occup=         0.0000000000e+00
  1        -1.6575308319e-08
  2         4.5161531633e-08
  3         1.6709470592e-08
  4         1.8320975872e-08
  5        -7.7358803039e-09
  6        -4.8231680865e-07
  7         1.5213573296e-08
  8        -3.9722684980e-08
  9         5.6880979069e-08
 10         5.4604494131e-06
 11         7.8150387919e-07
 12        -2.7501822644e-06
 13        -6.6607010026e-07
 14        -8.4294342222e-08
 15         6.0107984616e-08
 16         9.3601700464e-08
 17         2.5608597484e-08
 18         7.4303527155e-08
 19        -2.9350962017e-10
 20         8.8913464444e-10
 21        -4.1025993496e-08
 22        -2.1896646488e-08
 23        -2.5157389265e-09
 24         1.3277160196e-07
 25         1.8282684725e-07
 26         7.3991353021e-08
 27         2.4220818225e-09
 28        -3.6806920198e-06
 29         1.1108304873e-06
 30         1.8439210786e-06
 31         2.5045396731e-07
 32         4.4777224486e-08
 33        -1.7582363242e-08
 34        -8.4087306560e-09
 35        -3.9962934646e-08
 36        -8.0051204709e-10
 37        -5.7423524856e-09
 38         1.4872541500e-08
 39        -7.1614315954e-09
 40        -1.7445943103e-10
 41        -1.9479464710e-08
 42        -1.2913669899e-07
 43        -2.9417716316e-09
 44         2.0160581130e-10
 45         7.0550126589e-08
 46         3.5442549941e-06
 47        -1.4804052212e-06
 48        -2.4653992442e-08
 49        -2.5527111885e-07
 50        -1.8037578945e-08
 51        -4.1690290213e-09
 52        -2.5628716137e-10
 53        -1.9366316268e-08
 54        -5.3252196901e-10
 55        -1.5315660343e-09
 56         8.8374278547e-08
 57         6.7152600155e-07
 58         3.0170478126e-08
 59        -3.0430693313e-07
 60        -3.2648869218e-07
 61         4.7534070031e-10
 62        -1.3100290476e-09
 63         2.1953806743e-09
 64         6.9724417018e-11
 65         5.4182311858e-09
 66         4.9364821806e-09
 67        -9.3158309682e-09
 68        -2.9203184172e-10
 69        -1.9712730234e-08
 70         2.2504003153e-07
 71         8.4351197608e-08
 72         2.3501595214e-09
 73         9.1869404636e-08
 74         4.1078091903e-09
 75        -4.4516080535e-09
 76        -7.4940307348e-11
 77        -9.6956562837e-09
 78        -3.0302660589e-10
 79         7.8393324813e-10
 80        -2.4896341451e-09
 81         7.9610074777e-10
 82        -7.9196285211e-10
 83        -2.7461535755e-09
 84         1.5035878211e-08
 85        -3.8211827878e-09
 86         2.9258200003e-09
 87         8.0998699210e-09
 88        -5.2795219538e-08
 89         5.6700017095e-09
 90        -3.4733644275e-08
 91        -2.8806078795e-08
 92         4.8365638085e-09
 93         1.1016516032e-09
 94        -2.6888250694e-09
 95         2.2221515234e-09
 96        -3.0876993691e-09
 97         7.8429774916e-10
 98        -2.4907355629e-09
 99         7.6198432342e-10
100         7.8999816667e-10
101        -2.7506566580e-09
102         1.5043742732e-08
103        -3.6914764456e-09
104        -2.9594461943e-09
105         8.1188214475e-09
106        -5.3369758580e-08
107         4.6663727726e-09
108         3.4832944402e-08
109        -2.9107489399e-08
110         4.7758999819e-09
111         9.9603160136e-10
112         2.8101267448e-09
113         2.0213089675e-09
114         3.2163905947e-09
115        -1.6598430809e-08
116         4.5219247673e-08
117         1.7133485126e-08
118        -1.7844156691e-08
119        -7.6464646665e-09
120        -4.8263351517e-07
121         1.4609576739e-08
122         4.0328408754e-08
123         5.6793332499e-08
124         5.4631197230e-06
125         7.0328495653e-07
126         2.7684865667e-06
127        -6.8776502394e-07
128        -8.3136200876e-08
129         6.3325133178e-08
130        -9.2701880277e-08
131         3.0688552466e-08
132        -7.2118858931e-08
133        -1.5669962465e-09
134         8.8893787314e-08
135         6.7172991956e-07
136        -2.8655960524e-10
137         8.6913055704e-10
138        -4.1664510857e-08
139         2.0664108737e-08
140        -2.6680278112e-09
141         1.3317263019e-07
142         1.8510864303e-07
143        -6.8568665914e-08
144         2.9407863594e-09
145        -3.6869080003e-06
146         1.1642185126e-06
147        -1.8120298270e-06
148         2.6566385907e-07
149         4.4849745889e-08
150        -1.7826164780e-08
151         8.2486819671e-09
152        -4.0146323454e-08
153        -1.7328970604e-09
154         3.0239122490e-08
155        -3.0472777699e-07
156        -3.2698192198e-07
157         2.1199408383e-08
158        -6.7243663110e-08
159        -2.7306079802e-08
160        -8.6738418632e-10
161        -1.3268408943e-07
162         7.2367573570e-07
163        -8.0108875089e-08
164        -8.8842840381e-10
165         7.5147582619e-08
166        -6.2174279247e-06
167        -3.0809909856e-06
168        -4.3117270733e-08
169         4.1815502027e-07
170         4.1611442959e-09
171        -1.3468401298e-07
172        -1.5622044565e-09
173         3.4177711693e-08
174         4.1850656607e-10
175        -3.0936336345e-08
176        -1.8300311898e-07
177        -1.2874625234e-07
178         3.8999192419e-01
179         6.7446806170e-01
180         7.5833852392e-03
181        -4.3983313375e-04
182         2.4701792563e-05
183        -3.5034322903e-05
184         8.7783178572e-06
185        -3.4088770741e-06
186         2.8730167701e-06
187         6.1796857007e-08
188         5.5582995739e-06
189         1.0498901835e-06
190         2.2522559090e-08
191         2.0251159600e-06
192        -5.8299804658e-07
193        -1.2420571441e-08
194        -1.1001633964e-06
195         8.5225115307e-07
196         1.7817220475e-08
197         1.5338046346e-06
198        -9.2878832988e-07
199        -1.9058803547e-08
200        -1.5856518196e-06
201         8.2166188569e-07
202         1.6306093628e-08
203         1.2464333407e-06
204        -6.0236000754e-07
205        -1.2998729049e-08
206        -1.1183111793e-06
207         7.4362414850e-07
208         7.5647072178e-07
209         1.6299934876e-08
210         1.9560405568e-07
211         8.4339732989e-09
212        -4.0217187758e-07
213        -4.2204444858e-07
214        -9.0503348748e-09
215        -1.2801813514e-07
216        -5.1877974822e-09
217        -2.1451166717e-08
218         4.2182837018e-08
219         6.1023276139e-10
220         6.2692708084e-08
221         1.7945000020e-09
 Sym= A
 Ene=        -6.5361398639e+01
 Spin= Alpha
 Occup=         0.0000000000e+00
  1        -4.2797806389e-06
  2         1.3258632880e-05
  3         2.6399654838e-06
  4         3.7289404071e-06
  5        -3.0584431241e-06
  6        -1.5397605303e-04
  7         1.2837458109e-05
  8        -6.2418888329e-06
  9         2.4959840100e-05
 10         1.6993507102e-03
 11         2.5385809952e-04
 12        -8.4391134163e-04
 13        -2.0519643670e-04
 14        -2.6774822668e-05
 15         1.8158145227e-05
 16         2.6174948366e-05
 17         7.9491093628e-06
 18         2.2728803250e-05
 19         7.9548310422e-08
 20         2.4063304579e-08
 21        -1.2218005851e-05
 22        -6.5144683600e-06
 23        -6.4741946117e-07
 24         4.5455100519e-05
 25         5.6264329401e-05
 26         2.2339269510e-05
 27        -1.8835047468e-06
 28        -1.1803219424e-03
 29         3.6708754119e-04
 30         5.8989003702e-04
 31         8.0339407431e-05
 32         1.6308443513e-05
 33        -5.4969117431e-06
 34        -3.2990220099e-06
 35        -1.3753388082e-05
 36         8.2668959604e-07
 37        -1.0932515039e-06
 38         3.6463296003e-06
 39        -1.4453256938e-06
 40        -4.3153092113e-08
 41        -5.9402087636e-06
 42        -3.9691074422e-05
 43        -3.8728578402e-06
 44         1.3020197469e-08
 45         1.9240313059e-05
 46         1.1332387243e-03
 47        -4.7803192605e-04
 48        -7.9024142854e-06
 49        -7.7728938747e-05
 50        -5.9799640341e-06
 51        -1.4785022760e-06
 52        -8.6738559608e-08
 53        -6.2648006560e-06
 54        -1.7529826261e-07
 55         2.4149591785e-06
 56         1.8729670811e-05
 57         2.0964247799e-04
 58         1.0126987892e-05
 59        -9.9079824965e-05
 60        -1.0748103672e-04
 61         1.3833543983e-07
 62        -5.5317280570e-07
 63         8.7202520020e-07
 64         2.2469725643e-08
 65         1.3080265085e-06
 66         2.5096047986e-06
 67        -3.7068333681e-06
 68        -9.6529182696e-08
 69        -4.9824071439e-06
 70         7.4621035555e-05
 71         2.8708876946e-05
 72         7.5163272727e-07
 73         2.6384760701e-05
 74         1.2812232478e-06
 75        -1.3619205617e-06
 76        -2.2948662434e-08
 77        -2.9928227073e-06
 78        -9.3313686160e-08
 79         1.2945330643e-07
 80        -7.7085721068e-07
 81         3.2903643004e-07
 82        -2.4004684953e-07
 83        -7.4446137652e-07
 84         5.6212605484e-06
 85        -1.5358648194e-06
 86         9.8434083612e-07
 87         2.5187883312e-06
 88        -1.9218746137e-05
 89         2.8120600804e-06
 90        -1.1869876327e-05
 91        -8.4374314891e-06
 92         1.6004293796e-06
 93         3.4004321946e-07
 94        -7.3982258940e-07
 95         6.5287368120e-07
 96        -9.8634652109e-07
 97         1.2951188525e-07
 98        -7.7117352420e-07
 99         3.1885182422e-07
100         2.4270636861e-07
101        -7.4607869448e-07
102         5.6241300972e-06
103        -1.4938497172e-06
104        -1.0046466470e-06
105         2.5262109539e-06
106        -1.9394442633e-05
107         2.4694936723e-06
108         1.1933690875e-05
109        -8.5421429452e-06
110         1.5834737605e-06
111         3.0993980454e-07
112         7.7864902568e-07
113         5.8970204120e-07
114         1.0241007818e-06
115        -4.2835977870e-06
116         1.3271599595e-05
117         2.7137166080e-06
118        -3.6574889217e-06
119        -3.0501636088e-06
120        -1.5405241471e-04
121         1.2824486362e-05
122         6.7173085362e-06
123         2.4973870906e-05
124         1.7001020601e-03
125         2.2988885528e-04
126         8.4993063985e-04
127        -2.1182905862e-04
128        -2.6452810372e-05
129         1.9064755503e-05
130        -2.5915828573e-05
131         9.4885221007e-06
132        -2.2050728034e-05
133         2.3993874886e-06
134         1.8913007936e-05
135         2.0971036038e-04
136         8.0720655383e-08
137         1.9632439609e-08
138        -1.2408865925e-05
139         6.1473206854e-06
140        -6.9293892727e-07
141         4.5571823298e-05
142         5.6962906453e-05
143        -2.0687715435e-05
144        -1.7250236134e-06
145        -1.1822180674e-03
146         3.8414823789e-04
147        -5.7930056924e-04
148         8.5194488483e-05
149         1.6319799652e-05
150        -5.5845154997e-06
151         3.2700486766e-06
152        -1.3754200807e-05
153        -1.6881832888e-06
154         1.0147622843e-05
155        -9.9208460712e-05
156        -1.0763261674e-04
157         5.1905521237e-06
158        -1.3726247846e-05
159        -2.9782123835e-06
160        -1.4918691913e-07
161        -3.0653437569e-05
162         1.8364832641e-04
163        -2.4465891024e-05
164        -2.4598221506e-07
165         3.0747269073e-05
166        -1.8101886175e-03
167        -9.4932540251e-04
168        -1.3464634561e-05
169         8.4441548268e-05
170         3.1763005980e-06
171        -3.8680546430e-05
172        -4.3857062186e-07
173         8.7912995018e-06
174         8.4014561023e-08
175        -5.6069547364e-06
176        -7.1470233111e-05
177        -3.1772910323e-05
178        -1.2895631638e-01
179        -3.7895018561e-01
180         6.3833059049e-01
181         4.8934759804e-01
182         4.7219774506e-02
183        -7.4158033561e-03
184         2.2820740138e-03
185        -1.1918569538e-03
186         4.6247699534e-05
187         9.9328856169e-07
188         8.9274054813e-05
189         3.8461816353e-04
190         8.2555474701e-06
191         7.4146228803e-04
192         4.3497136253e-05
193         9.6019800756e-07
194         8.9266842241e-05
195         1.2388557158e-05
196         1.4078702744e-07
197        -3.9327731584e-06
198        -7.2452568699e-05
199        -1.3207876933e-06
200        -8.5478356131e-05
201         1.5718311807e-04
202         3.0027963498e-06
203         2.0893194993e-04
204        -1.7543502114e-04
205        -3.8145320557e-06
206        -3.3117027154e-04
207         4.4800961979e-05
208         4.6704002822e-05
209         1.0029004507e-06
210         1.3411933790e-05
211         5.5516755190e-07
212        -2.9335767887e-06
213        -7.3626347307e-06
214        -1.4422078004e-07
215        -8.3674699738e-06
216        -2.4673184619e-07
217        -9.0342260196e-06
218         9.8050340990e-06
219         1.2241435487e-07
220         1.8115655329e-05
221         5.0637954279e-07
 Sym= A
 Ene=        -5.8721876352e+01
 Spin= Alpha
 Occup=         0.0000000000e+00
  1        -1.8174780246e-06
  2         6.2472310723e-06
  3        -9.0586982996e-06
  4        -6.3649445719e-06
  5        -7.8836834990e-06
  6        -1.6285464825e-05
  7         4.6937431871e-05
  8         3.4100965013e-05
  9         3.7193884142e-05
 10        -1.8310824488e-04
 11         6.5411777469e-05
 12         1.7962791579e-04
 13         4.5462608900e-05
 14        -5.6258784237e-07
 15        -1.5150599664e-06
 16        -1.6864622194e-05
 17        -4.5304436381e-06
 18         1.7717488915e-08
 19         1.0029978715e-06
 20        -3.2701007267e-06
 21         2.9805518496e-06
 22         1.0809613773e-06
 23         3.0298062205e-06
 24         3.4240495745e-05
 25        -1.6814655239e-05
 26        -4.9389186660e-06
 27        -1.2714748575e-05
 28        -1.4635238513e-04
 29         1.1976065921e-04
 30         5.5668120640e-05
 31         8.9550429754e-06
 32         1.2897045689e-05
 33        -3.0013611436e-07
 34        -5.6021481133e-06
 35        -4.7731681588e-06
 36         7.1903432454e-06
 37         1.1149479870e-06
 38        -3.5667594068e-06
 39         5.3513597538e-06
 40         8.7714810911e-08
 41         3.6515101742e-06
 42         9.5470161887e-06
 43        -2.3100316419e-05
 44        -3.5633601261e-07
 45        -1.3430248155e-05
 46         1.0446188744e-04
 47        -7.7480063773e-05
 48        -8.8733474083e-07
 49         2.5591595919e-05
 50        -3.0775420358e-06
 51        -2.6778764875e-06
 52        -7.1922632508e-08
 53        -1.4408469756e-06
 54        -6.8055542026e-08
 55         1.8932021961e-05
 56        -6.5120568212e-05
 57        -1.8848792644e-05
 58         4.5768986780e-06
 59        -2.1728732449e-05
 60        -3.1312113994e-05
 61         2.9981691209e-07
 62        -1.3075702881e-06
 63         1.3880519367e-06
 64         8.2406719758e-09
 65        -2.4386173254e-06
 66         5.8290181487e-06
 67        -5.3424877006e-06
 68        -3.6568936158e-08
 69         7.8988792436e-06
 70         2.9626208405e-05
 71         1.3466402776e-05
 72         5.8806580053e-08
 73        -1.9094138902e-05
 74        -2.1665128899e-07
 75         8.7869272806e-08
 76         1.3561097096e-09
 77         5.3332492769e-07
 78         1.6457982426e-08
 79         1.4524206845e-07
 80        -9.7880510830e-07
 81         5.6093664206e-07
 82        -7.0394411978e-08
 83         1.0277559434e-07
 84         6.6326659636e-06
 85        -2.4528165008e-06
 86         6.2218762746e-07
 87        -3.8055455681e-07
 88        -1.9133919709e-05
 89         7.6046540110e-06
 90        -7.1102147081e-06
 91         3.7352497950e-06
 92         8.9737893467e-07
 93         1.3891211409e-07
 94         5.8357516251e-07
 95        -2.2127447794e-07
 96        -2.3183971704e-07
 97         1.4529225613e-07
 98        -9.7916542389e-07
 99         5.5970215750e-07
100         8.7150824497e-08
101         1.0047481772e-07
102         6.6352284746e-06
103        -2.4381417633e-06
104        -6.9539558040e-07
105        -3.6949829725e-07
106        -1.9099260128e-05
107         7.3999797493e-06
108         7.3438464695e-06
109         3.6615804248e-06
110         9.0790357593e-07
111         1.5500203698e-07
112        -5.6766783880e-07
113        -2.2979404923e-07
114         2.2019387115e-07
115        -1.8117530465e-06
116         6.2310384313e-06
117        -9.2657449740e-06
118         6.0670650073e-06
119        -7.9510163790e-06
120        -1.6120962578e-05
121         4.7954213272e-05
122        -3.2498348225e-05
123         3.7449950696e-05
124        -1.8371310156e-04
125         7.0709254661e-05
126        -1.7737803888e-04
127         4.7054103732e-05
128        -7.9583253484e-07
129        -2.0627356526e-06
130         1.6805315613e-05
131        -4.6163403900e-06
132        -2.4959486952e-07
133         1.8900033827e-05
134        -6.4959571567e-05
135        -1.8836539856e-05
136         9.9996396037e-07
137        -3.2608533908e-06
138         3.0032594295e-06
139        -9.7659930572e-07
140         3.0361533640e-06
141         3.4169158652e-05
142        -1.6879340226e-05
143         4.3801835741e-06
144        -1.2739328182e-05
145        -1.4593984418e-04
146         1.2122612972e-04
147        -5.1934995196e-05
148         9.3351476934e-06
149         1.2813861036e-05
150        -4.0831191648e-07
151         5.7258469601e-06
152        -4.4210197932e-06
153        -7.4458496730e-06
154         4.5750351593e-06
155        -2.1718291363e-05
156        -3.1286099499e-05
157         8.4092906834e-07
158         1.1592347969e-07
159         1.2195762789e-05
160         2.4954926810e-07
161         1.7222908595e-05
162        -1.8729700519e-04
163        -7.3245402563e-05
164        -1.4266809439e-06
165        -8.4386973586e-05
166         9.2339510242e-04
167         2.0245665239e-04
168         1.8377851509e-06
169        -2.6723833108e-04
170         5.7038046312e-05
171         5.9304305621e-05
172         1.2055709094e-06
173         7.0487021651e-07
174         2.0079349322e-07
175         1.8174996618e-05
176        -8.5632695714e-05
177         3.5704593604e-05
178         1.2282351347e-04
179         3.6427405582e-04
180        -6.7276349979e-04