&FCI NORB=9,NELEC=0,MS2=0
ORBSYM=1,1,1,1,
ISYM=1,
/
      7.26994056091544771370e-01 	 1 1 1 1
      5.14413938115720111716e-04 	 1 1 2 1
      1.37200546016012114858e-01 	 1 1 2 2
     -8.48815367967463733564e-04 	 1 1 3 1
     -5.03617225301838640841e-05 	 1 1 3 2
      3.74591709840208730853e-01 	 1 1 3 3
     -3.21858910354698001671e-03 	 1 1 4 1
      5.00983120680685805985e-04 	 1 1 4 2
     -4.32768175638858099835e-03 	 1 1 4 3
      3.14936413501294087958e-01 	 1 1 4 4
      5.14424310396064191075e-04 	 1 1 5 1
      4.79463596466586314000e-04 	 1 1 5 2
     -2.03726857640968030518e-04 	 1 1 5 3
      5.00992496628090773665e-04 	 1 1 5 4
      1.37200584965701644080e-01 	 1 1 5 5
      8.48872872409932028963e-04 	 1 1 6 1
      2.03725739603768750798e-04 	 1 1 6 2
      6.08295803549507418245e-03 	 1 1 6 3
      4.32769025798944960426e-03 	 1 1 6 4
      5.03652898325881897873e-05 	 1 1 6 5
      3.74591898731631123276e-01 	 1 1 6 6
      5.24608859019670692447e-03 	 1 1 7 1
     -1.37201381296735321069e-03 	 1 1 7 2
     -1.75927550761911474266e-03 	 1 1 7 3
     -9.69633633642905091131e-04 	 1 1 7 4
      7.95324258967228768513e-04 	 1 1 7 5
      2.33349455369405436801e-05 	 1 1 7 6
      2.02570365914840427868e-01 	 1 1 7 7
      5.19345372453341655450e-04 	 1 1 8 1
     -1.15965709615304746541e-03 	 1 1 8 2
     -3.33184830025593572153e-05 	 1 1 8 3
     -1.53955154497121388633e-03 	 1 1 8 4
     -1.15965548137908274970e-03 	 1 1 8 5
      3.33212843558475114015e-05 	 1 1 8 6
     -9.43309569663933786092e-04 	 1 1 8 7
      1.21056939676462888000e-01 	 1 1 8 8
     -5.24609094383063443573e-03 	 1 1 9 1
     -7.95322233511363782012e-04 	 1 1 9 2
      2.33335272704296577909e-05 	 1 1 9 3
      9.69649846581791159672e-04 	 1 1 9 4
      1.37201915448038522759e-03 	 1 1 9 5
     -1.75927367512239050083e-03 	 1 1 9 6
      4.47714873062568866069e-03 	 1 1 9 7
      9.43309064813782518870e-04 	 1 1 9 8
      2.02570430667168954741e-01 	 1 1 9 9
      5.14413938115727484290e-04 	 2 1 1 1
      2.34380482702830664178e-05 	 2 1 2 1
      1.33596312698908798941e-03 	 2 1 2 2
      1.11160140320298091599e-04 	 2 1 3 1
      1.27532653203252033956e-06 	 2 1 3 2
     -5.51234716246011883199e-04 	 2 1 3 3
     -5.21206741751713663736e-05 	 2 1 4 1
      2.57152257512008008120e-05 	 2 1 4 2
     -2.97161284857629444552e-05 	 2 1 4 3
     -9.23661629700809011598e-05 	 2 1 4 4
     -1.74576681620853250924e-06 	 2 1 5 1
      4.98235875445537341002e-06 	 2 1 5 2
     -3.06608177772718003914e-07 	 2 1 5 3
      1.44441186411201953296e-05 	 2 1 5 4
     -1.07006591221284560632e-04 	 2 1 5 5
      4.70672027651034832144e-05 	 2 1 6 1
     -6.32624829018016997983e-06 	 2 1 6 2
      5.20759051173597751209e-06 	 2 1 6 3
     -7.21202215018934726041e-06 	 2 1 6 4
     -6.14910060317361114370e-07 	 2 1 6 5
      2.84511785318225041488e-04 	 2 1 6 6
     -6.75855722669634115371e-06 	 2 1 7 1
      1.05299715177698240891e-04 	 2 1 7 2
      8.40493842266266820613e-06 	 2 1 7 3
      1.13471295099538065738e-04 	 2 1 7 4
      2.18441855190941211276e-06 	 2 1 7 5
     -1.87627997428922879832e-07 	 2 1 7 6
      1.33260816873123595161e-04 	 2 1 7 7
      2.59954917115096627639e-06 	 2 1 8 1
      4.91712885114657021011e-05 	 2 1 8 2
      5.59996452191362827326e-07 	 2 1 8 3
      3.37736507660545406739e-06 	 2 1 8 4
      3.70137593974265128411e-05 	 2 1 8 5
     -7.75480962449071803677e-08 	 2 1 8 6
      4.47965178117231221477e-05 	 2 1 8 7
      6.74332212814976044183e-05 	 2 1 8 8
     -2.38151050540078019883e-05 	 2 1 9 1
      1.90783688493055698097e-05 	 2 1 9 2
     -1.36485452177072283348e-06 	 2 1 9 3
     -3.15474916682508070678e-06 	 2 1 9 4
      3.00856349236065197846e-05 	 2 1 9 5
     -2.47151345268339937266e-06 	 2 1 9 6
     -1.16977966812815954392e-05 	 2 1 9 7
      3.43234863772394199275e-06 	 2 1 9 8
     -1.12284141860644336467e-04 	 2 1 9 9
      1.37200546016011948325e-01 	 2 2 1 1
      1.33596312698909384410e-03 	 2 2 2 1
      5.18446375162369577083e-01 	 2 2 2 2
     -1.36096780854212865797e-05 	 2 2 3 1
     -3.87464175015449509266e-05 	 2 2 3 2
      1.25652833665667124086e-01 	 2 2 3 3
      2.88781140828521390787e-03 	 2 2 4 1
      2.12449479399112262437e-03 	 2 2 4 2
      3.32813258414261831271e-04 	 2 2 4 3
      2.00350695484700080939e-01 	 2 2 4 4
     -1.07007560481452320116e-04 	 2 2 5 1
     -2.04337369726991825714e-03 	 2 2 5 2
      5.25061676141610100994e-06 	 2 2 5 3
     -1.15022503008201494937e-03 	 2 2 5 4
      1.93293821713545588281e-01 	 2 2 5 5
     -9.43544253155748579263e-04 	 2 2 6 1
     -7.22172660289250776221e-04 	 2 2 6 2
      5.94139758546880186567e-04 	 2 2 6 3
      3.96564306957915703022e-04 	 2 2 6 4
      3.03405806678869976024e-05 	 2 2 6 5
      1.09398464684407129011e-01 	 2 2 6 6
     -1.50267598183124974007e-03 	 2 2 7 1
      1.64319091970504087274e-02 	 2 2 7 2
      1.63140637142451610207e-03 	 2 2 7 3
     -1.43158637249073995845e-03 	 2 2 7 4
      1.29391349062880195962e-03 	 2 2 7 5
      8.40191398894720429570e-04 	 2 2 7 6
      2.98487132798581189519e-01 	 2 2 7 7
      2.46306820707094170899e-06 	 2 2 8 1
     -1.58311865425712662570e-02 	 2 2 8 2
      1.42849562823095977034e-04 	 2 2 8 3
      9.13626044623301104310e-04 	 2 2 8 4
     -1.95606145424381859879e-03 	 2 2 8 5
      1.32281748867367357839e-04 	 2 2 8 6
      6.24834624946190003020e-03 	 2 2 8 7
      2.97438547526600816084e-01 	 2 2 8 8
      1.73814050167082011743e-03 	 2 2 9 1
      1.78858400912778920007e-03 	 2 2 9 2
      2.86690886278074999038e-04 	 2 2 9 3
      2.44256514687158287832e-03 	 2 2 9 4
     -3.65496740191146012727e-03 	 2 2 9 5
      6.16376534403430872272e-05 	 2 2 9 6
     -8.61690989892854560320e-04 	 2 2 9 7
      1.11401801828752474582e-03 	 2 2 9 8
      1.68785750982853949287e-01 	 2 2 9 9
     -8.48815367967480538698e-04 	 3 1 1 1
      1.11160140320299419747e-04 	 3 1 2 1
     -1.36096780854034446777e-05 	 3 1 2 2
      5.30939550216023153917e-03 	 3 1 3 1
      3.60086579848228947623e-06 	 3 1 3 2
     -1.10708549441443041689e-02 	 3 1 3 3
     -7.63879888946579835296e-04 	 3 1 4 1
     -1.30522626504948012754e-04 	 3 1 4 2
      3.73172378671356923079e-05 	 3 1 4 3
      2.50209381899557008547e-03 	 3 1 4 4
     -4.70674192825575886975e-05 	 3 1 5 1
      1.54838073227521927579e-06 	 3 1 5 2
     -1.36986203243104799762e-05 	 3 1 5 3
      1.03717074540029947330e-04 	 3 1 5 4
      9.43545564865130859111e-04 	 3 1 5 5
      1.37241612948401053677e-03 	 3 1 6 1
     -4.34191037035404793222e-06 	 3 1 6 2
     -4.33154913709559883858e-04 	 3 1 6 3
     -1.07961570988242600466e-04 	 3 1 6 4
      1.89240047772673289573e-06 	 3 1 6 5
      3.98324249016404445534e-03 	 3 1 6 6
     -4.11417877107447945914e-04 	 3 1 7 1
      1.16590513544812869086e-04 	 3 1 7 2
      1.34365771319117468293e-04 	 3 1 7 3
      3.95451747820935769605e-04 	 3 1 7 4
      3.67679076283004816384e-05 	 3 1 7 5
      1.34724174355335483809e-05 	 3 1 7 6
     -8.64347787241393395070e-04 	 3 1 7 7
      3.11222321166228089030e-05 	 3 1 8 1
     -3.35001931222584883223e-05 	 3 1 8 2
     -2.55367121144416297626e-06 	 3 1 8 3
     -3.58764975591296600291e-05 	 3 1 8 4
     -3.44901923536193625940e-07 	 3 1 8 5
     -1.22661740783699939073e-06 	 3 1 8 6
      2.10159336876814521354e-05 	 3 1 8 7
      3.97703896641735262472e-04 	 3 1 8 8
     -2.41458892924891929102e-05 	 3 1 9 1
      2.44219050633030897309e-05 	 3 1 9 2
     -8.43944376800186845831e-05 	 3 1 9 3
      4.05480006374604946048e-04 	 3 1 9 4
      6.14504252224982338475e-05 	 3 1 9 5
     -9.59974070036272281148e-06 	 3 1 9 6
      2.99538092198914190879e-05 	 3 1 9 7
      2.21457001357673031767e-05 	 3 1 9 8
      2.38853492019594536647e-03 	 3 1 9 9
     -5.03617225301884177333e-05 	 3 2 1 1
      1.27532653203290976296e-06 	 3 2 2 1
     -3.87464175015476343269e-05 	 3 2 2 2
      3.60086579848513211880e-06 	 3 2 3 1
      4.07730887509687229989e-05 	 3 2 3 2
     -3.33376512441608792783e-03 	 3 2 3 3
     -6.47893852072806977153e-05 	 3 2 4 1
      2.65534047834620910353e-05 	 3 2 4 2
     -3.26731913416323751414e-05 	 3 2 4 3
      4.89279317768187430385e-04 	 3 2 4 4
      6.14795610111794991405e-07 	 3 2 5 1
      1.57771633285331982046e-05 	 3 2 5 2
     -5.75582900797292480282e-06 	 3 2 5 3
     -7.70468281605672498206e-07 	 3 2 5 4
     -3.03392843997675457275e-05 	 3 2 5 5
      1.89235451173676930147e-06 	 3 2 6 1
      1.89318711644508722090e-06 	 3 2 6 2
      2.78139106610660425485e-05 	 3 2 6 3
      9.94100218649146998354e-06 	 3 2 6 4
     -2.06929737980914320701e-06 	 3 2 6 5
     -2.96284287975653751277e-05 	 3 2 6 6
     -1.26962935484596422061e-05 	 3 2 7 1
      6.81544115036516816959e-05 	 3 2 7 2
     -4.60250932201925047399e-05 	 3 2 7 3
     -9.83755082106954125505e-06 	 3 2 7 4
     -5.69683008044508625820e-06 	 3 2 7 5
     -3.59868233378980488724e-07 	 3 2 7 6
      7.10393972969122072803e-04 	 3 2 7 7
      2.28674763873967350022e-06 	 3 2 8 1
      6.63112236748410822972e-05 	 3 2 8 2
      1.31647846493098728631e-05 	 3 2 8 3
      1.56459820346941651467e-06 	 3 2 8 4
      1.71377260621880084224e-06 	 3 2 8 5
     -9.54396899202501010942e-07 	 3 2 8 6
     -9.48504064243829685127e-07 	 3 2 8 7
     -2.36244815957593006341e-04 	 3 2 8 8
      1.55287901498175282813e-05 	 3 2 9 1
     -6.10414355571338327423e-06 	 3 2 9 2
     -1.26751829837820282465e-05 	 3 2 9 3
     -1.00396919009523983809e-05 	 3 2 9 4
      3.06386779034775557276e-06 	 3 2 9 5
     -4.35031945279248183302e-06 	 3 2 9 6
      9.91927912601871342537e-06 	 3 2 9 7
     -8.87784626730403417379e-07 	 3 2 9 8
      1.43577050768492557034e-04 	 3 2 9 9
      3.74591709840208897386e-01 	 3 3 1 1
     -5.51234716246005269566e-04 	 3 3 2 1
      1.25652833665667040819e-01 	 3 3 2 2
     -1.10708549441443718231e-02 	 3 3 3 1
     -3.33376512441608706047e-03 	 3 3 3 2
      7.68419254003408824794e-01 	 3 3 3 3
     -5.21236683494274424464e-04 	 3 3 4 1
      1.38875248541765164596e-03 	 3 3 4 2
      4.99168014438209576428e-03 	 3 3 4 3
      2.15295077491830133543e-01 	 3 3 4 4
      2.84517048359644007544e-04 	 3 3 5 1
      4.62833403662332189526e-04 	 3 3 5 2
      3.70720373092593713255e-04 	 3 3 5 3
     -3.42310425606789957894e-04 	 3 3 5 4
      1.09398477896717458147e-01 	 3 3 5 5
     -3.98323050145159979207e-03 	 3 3 6 1
      2.31959569302382775718e-04 	 3 3 6 2
     -1.33222868340597322195e-04 	 3 3 6 3
      2.59558656832674242501e-03 	 3 3 6 4
      2.96294787276517963479e-05 	 3 3 6 5
      2.33433313864067987220e-01 	 3 3 6 6
      3.82832645897516771899e-03 	 3 3 7 1
     -2.51453408949878134265e-03 	 3 3 7 2
      2.77666845937516240661e-03 	 3 3 7 3
     -3.20285498891623686413e-03 	 3 3 7 4
      9.90150002849765608086e-06 	 3 3 7 5
     -1.84255770219660650923e-04 	 3 3 7 6
      1.87106715601857487297e-01 	 3 3 7 7
      1.18214420528869515849e-05 	 3 3 8 1
     -2.80066215276212747854e-04 	 3 3 8 2
     -1.14931958422367311995e-03 	 3 3 8 3
     -5.86484744722462914696e-04 	 3 3 8 4
     -8.84658656565173078315e-04 	 3 3 8 5
      5.74972801750727938305e-05 	 3 3 8 6
     -9.77484866674587166493e-04 	 3 3 8 7
      1.04395599747342207597e-01 	 3 3 8 8
     -1.44771081025842182806e-03 	 3 3 9 1
     -7.09321495305787982390e-04 	 3 3 9 2
      4.29218087385825717173e-04 	 3 3 9 3
     -1.35301117222629951192e-03 	 3 3 9 4
      2.70229316822653158926e-04 	 3 3 9 5
     -9.41206708605492521104e-04 	 3 3 9 6
      2.64864548782629610421e-03 	 3 3 9 7
      5.05398219350148506651e-04 	 3 3 9 8
      1.44099801420546402841e-01 	 3 3 9 9
     -3.21858910354691279618e-03 	 4 1 1 1
     -5.21206741751635194604e-05 	 4 1 2 1
      2.88781140828517661132e-03 	 4 1 2 2
     -7.63879888946576907950e-04 	 4 1 3 1
     -6.47893852072798981162e-05 	 4 1 3 2
     -5.21236683494347391270e-04 	 4 1 3 3
      4.37785805180630673700e-03 	 4 1 4 1
     -6.75429731505396147018e-05 	 4 1 4 2
      4.93703935043619964416e-04 	 4 1 4 3
     -1.54951301815150761614e-03 	 4 1 4 4
     -5.21199656462303904133e-05 	 4 1 5 1
      1.56758734641091346945e-05 	 4 1 5 2
      2.14273947853920568893e-05 	 4 1 5 3
     -6.75438889144629661318e-05 	 4 1 5 4
      2.88781590242319146852e-03 	 4 1 5 5
      7.63882927594685431742e-04 	 4 1 6 1
     -2.14271325092518079519e-05 	 4 1 6 2
     -8.55461392057156773394e-05 	 4 1 6 3
     -4.93705914888163373624e-04 	 4 1 6 4
      6.47895477855896402813e-05 	 4 1 6 5
     -5.21229829707571968439e-04 	 4 1 6 6
      3.16483714952925040704e-04 	 4 1 7 1
      5.87740760739765568353e-04 	 4 1 7 2
      1.95465799353169294994e-04 	 4 1 7 3
     -1.08768452258480225782e-03 	 4 1 7 4
      8.85749452623337128792e-07 	 4 1 7 5
      9.77528431572167430573e-05 	 4 1 7 6
      2.72079171804940917606e-03 	 4 1 7 7
     -4.23807293616050584101e-05 	 4 1 8 1
     -1.98132146497392538269e-04 	 4 1 8 2
     -1.66116319218938818920e-05 	 4 1 8 3
      7.10722163828487318990e-05 	 4 1 8 4
     -1.98132534920493458925e-04 	 4 1 8 5
      1.66115596040254117445e-05 	 4 1 8 6
      6.35542765986182314145e-05 	 4 1 8 7
      2.66476364349359272701e-03 	 4 1 8 8
     -3.16482496360604294121e-04 	 4 1 9 1
     -8.85967760549696125331e-07 	 4 1 9 2
      9.77531501927620061427e-05 	 4 1 9 3
      1.08768548574057787905e-03 	 4 1 9 4
     -5.87742128947984815608e-04 	 4 1 9 5
      1.95465883340577333471e-04 	 4 1 9 6
     -1.04004234295395600650e-04 	 4 1 9 7
     -6.35551962679416340479e-05 	 4 1 9 8
      2.72079240532686590995e-03 	 4 1 9 9
      5.00983120680610562354e-04 	 4 2 1 1
      2.57152257512013158081e-05 	 4 2 2 1
      2.12449479399103849028e-03 	 4 2 2 2
     -1.30522626504950804574e-04 	 4 2 3 1
      2.65534047834620537658e-05 	 4 2 3 2
      1.38875248541765359753e-03 	 4 2 3 3
     -6.75429731505820747694e-05 	 4 2 4 1
      3.76916683207536044528e-04 	 4 2 4 2
      6.60111112815139130117e-05 	 4 2 4 3
     -1.90199187871413358600e-04 	 4 2 4 4
      1.44439726132426577625e-05 	 4 2 5 1
      8.56949632215040461988e-05 	 4 2 5 2
      9.74280377723306848745e-07 	 4 2 5 3
     -9.16868195648046284364e-05 	 4 2 5 4
     -1.15022374374105953825e-03 	 4 2 5 5
     -1.03716909128237082553e-04 	 4 2 6 1
     -1.23747725847962170614e-06 	 4 2 6 2
      9.03863383374191993686e-06 	 4 2 6 3
      5.84302403812628697879e-05 	 4 2 6 4
      7.70475553148855257129e-07 	 4 2 6 5
     -3.42315112735400758470e-04 	 4 2 6 6
      3.32008068942144158632e-05 	 4 2 7 1
      6.47022824339030223038e-04 	 4 2 7 2
      4.58571501070634146720e-05 	 4 2 7 3
     -5.05800568864367763866e-04 	 4 2 7 4
     -5.14397054093624600643e-05 	 4 2 7 5
      6.30161625590737148225e-06 	 4 2 7 6
      5.23647957223002773197e-03 	 4 2 7 7
      8.74578353338536320955e-06 	 4 2 8 1
      4.33946223030906130368e-04 	 4 2 8 2
      6.41151496990764315989e-06 	 4 2 8 3
      6.04321701366272734119e-05 	 4 2 8 4
      1.35594817538643824367e-05 	 4 2 8 5
     -2.75858447600765067303e-07 	 4 2 8 6
      9.00802585676930861903e-05 	 4 2 8 7
     -1.38033284953383104249e-03 	 4 2 8 8
     -1.30567664353445488399e-05 	 4 2 9 1
     -3.51435120347814761079e-05 	 4 2 9 2
     -1.96129466757885223354e-05 	 4 2 9 3
     -5.99207307784821430717e-04 	 4 2 9 4
      2.89084440098464052311e-05 	 4 2 9 5
     -1.92400378239724684703e-05 	 4 2 9 6
      2.87077904837967413411e-05 	 4 2 9 7
     -2.59028133841883215194e-05 	 4 2 9 8
     -2.04097738726155119443e-03 	 4 2 9 9
     -4.32768175638858880461e-03 	 4 3 1 1
     -2.97161284857589701766e-05 	 4 3 2 1
      3.32813258414237707773e-04 	 4 3 2 2
      3.73172378671361869751e-05 	 4 3 3 1
     -3.26731913416315213321e-05 	 4 3 3 2
      4.99168014438206887606e-03 	 4 3 3 3
      4.93703935043620398097e-04 	 4 3 4 1
      6.60111112815265033095e-05 	 4 3 4 2
      3.25723062397617331258e-04 	 4 3 4 3
     -4.31543534720530558291e-03 	 4 3 4 4
      7.21230595122267866584e-06 	 4 3 5 1
      3.14536340673427127886e-06 	 4 3 5 2
      7.40955382123771498168e-06 	 4 3 5 3
     -5.84295923143008164155e-05 	 4 3 5 4
     -3.96563438709804708376e-04 	 4 3 5 5
     -1.07961636824992579064e-04 	 4 3 6 1
      1.01851429083914604193e-06 	 4 3 6 2
     -9.61832978817515568161e-05 	 4 3 6 3
     -7.97349283810493022996e-05 	 4 3 6 4
      9.94092202861968660273e-06 	 4 3 6 5
     -2.59558227418231436331e-03 	 4 3 6 6
      8.47842577591401022575e-05 	 4 3 7 1
      2.35742761660554526115e-05 	 4 3 7 2
      7.58797730593065475986e-05 	 4 3 7 3
     -2.92339094161391649905e-04 	 4 3 7 4
     -3.33727309445054756481e-05 	 4 3 7 5
     -1.67547415821889083907e-06 	 4 3 7 6
      4.39188991131353554265e-04 	 4 3 7 7
     -1.05199192762813215632e-05 	 4 3 8 1
      8.53447659347531369317e-06 	 4 3 8 2
     -1.23824065683849912167e-05 	 4 3 8 3
      6.89541582737530488623e-05 	 4 3 8 4
     -1.71132956935665427056e-05 	 4 3 8 5
      4.91520863279502845204e-06 	 4 3 8 6
      5.34469732965017041399e-06 	 4 3 8 7
     -5.54249514105043904736e-06 	 4 3 8 8
      2.31353712088328487253e-05 	 4 3 9 1
     -1.94911491034517289869e-06 	 4 3 9 2
     -1.72739760390739164610e-05 	 4 3 9 3
     -8.19392929312692504598e-05 	 4 3 9 4
     -1.21613464660376598137e-04 	 4 3 9 5
      3.38372695063806673294e-05 	 4 3 9 6
     -8.81321956637789235157e-05 	 4 3 9 7
     -2.43368491465122591100e-05 	 4 3 9 8
     -1.58334340601913700804e-03 	 4 3 9 9
      3.14936413501294421025e-01 	 4 4 1 1
     -9.23661629700557070119e-05 	 4 4 2 1
      2.00350695484699831139e-01 	 4 4 2 2
      2.50209381899559003479e-03 	 4 4 3 1
      4.89279317768196212422e-04 	 4 4 3 2
      2.15295077491830022520e-01 	 4 4 3 3
     -1.54951301815141914524e-03 	 4 4 4 1
     -1.90199187871389479047e-04 	 4 4 4 2
     -4.31543534720530991972e-03 	 4 4 4 3
      5.64010896491580870915e-01 	 4 4 4 4
     -9.23691778450014982539e-05 	 4 4 5 1
      6.37730365656557205735e-04 	 4 4 5 2
     -3.27493835805098894732e-04 	 4 4 5 3
     -1.90187060871040223686e-04 	 4 4 5 4
      2.00350766439442773414e-01 	 4 4 5 5
     -2.50209271141126716673e-03 	 4 4 6 1
      3.27495121315494726408e-04 	 4 4 6 2
      2.15783421965404838966e-03 	 4 4 6 3
      4.31543429893053737817e-03 	 4 4 6 4
     -4.89275220484679620493e-04 	 4 4 6 5
      2.15295117812152297931e-01 	 4 4 6 6
     -5.02989744419490673877e-03 	 4 4 7 1
      2.96963086434161435342e-03 	 4 4 7 2
     -1.06977155488098703805e-03 	 4 4 7 3
     -1.27253906606873169738e-02 	 4 4 7 4
      1.77618108186418117295e-03 	 4 4 7 5
      7.83738145728804535585e-04 	 4 4 7 6
      3.05611785430036253519e-01 	 4 4 7 7
      3.96792616442064255758e-04 	 4 4 8 1
     -3.85958763356311108927e-03 	 4 4 8 2
      2.12025087938562997172e-04 	 4 4 8 3
     -4.19589877842977201916e-03 	 4 4 8 4
     -3.85958636993654269007e-03 	 4 4 8 5
     -2.12023292569995505576e-04 	 4 4 8 6
     -9.16976314044957475924e-04 	 4 4 8 7
      1.75627208668037909645e-01 	 4 4 8 8
      5.02989844916394007734e-03 	 4 4 9 1
     -1.77618186381289962228e-03 	 4 4 9 2
      7.83736858742646157888e-04 	 4 4 9 3
      1.27254289925178495912e-02 	 4 4 9 4
     -2.96963671545598514520e-03 	 4 4 9 5
     -1.06977153450286315353e-03 	 4 4 9 6
      9.00959424460746893804e-03 	 4 4 9 7
      9.16966039943003727308e-04 	 4 4 9 8
      3.05611830430847219997e-01 	 4 4 9 9
      5.14424310396063106873e-04 	 5 1 1 1
     -1.74576681620805584145e-06 	 5 1 2 1
     -1.07007560481446194374e-04 	 5 1 2 2
     -4.70674192825518153209e-05 	 5 1 3 1
      6.14795610111056908070e-07 	 5 1 3 2
      2.84517048359650295917e-04 	 5 1 3 3
     -5.21199656462377291068e-05 	 5 1 4 1
      1.44439726132406824816e-05 	 5 1 4 2
      7.21230595122038659468e-06 	 5 1 4 3
     -9.23691778450183982553e-05 	 5 1 4 4
      2.34381078756076554899e-05 	 5 1 5 1
      4.98227172220954012003e-06 	 5 1 5 2
      6.32620447037762931536e-06 	 5 1 5 3
      2.57150704521278084197e-05 	 5 1 5 4
      1.33595924071907342506e-03 	 5 1 5 5
     -1.11160101199186169820e-04 	 5 1 6 1
      3.06532769372236958520e-07 	 5 1 6 2
      5.20766690511209701608e-06 	 5 1 6 3
      2.97161682968307033802e-05 	 5 1 6 4
     -1.27538035637895194967e-06 	 5 1 6 5
     -5.51231190608094854221e-04 	 5 1 6 6
      2.38153249878635396878e-05 	 5 1 7 1
     -3.00856507652589758939e-05 	 5 1 7 2
     -2.47139754983019908484e-06 	 5 1 7 3
      3.15449008679464382035e-06 	 5 1 7 4
     -1.90785847286786362776e-05 	 5 1 7 5
     -1.36488120094208617931e-06 	 5 1 7 6
     -1.12283600911833417483e-04 	 5 1 7 7
      2.59932879296940219058e-06 	 5 1 8 1
      3.70139658581875505001e-05 	 5 1 8 2
      7.75780566175604452748e-08 	 5 1 8 3
      3.37675271913976606951e-06 	 5 1 8 4
      4.91724636692900994388e-05 	 5 1 8 5
     -5.59949848281526235543e-07 	 5 1 8 6
     -3.43241322768772655902e-06 	 5 1 8 7
      6.74308853638259778941e-05 	 5 1 8 8
      6.75815170465801169826e-06 	 5 1 9 1
     -2.18443380750067114225e-06 	 5 1 9 2
     -1.87765837201127714887e-07 	 5 1 9 3
     -1.13472946432328707870e-04 	 5 1 9 4
     -1.05298785002817043037e-04 	 5 1 9 5
      8.40491972366607479890e-06 	 5 1 9 6
     -1.16977073492014152392e-05 	 5 1 9 7
     -4.47966258579534574828e-05 	 5 1 9 8
      1.33252472795111428800e-04 	 5 1 9 9
      4.79463596466547716402e-04 	 5 2 1 1
      4.98235875445544371375e-06 	 5 2 2 1
     -2.04337369726981460741e-03 	 5 2 2 2
      1.54838073226833226266e-06 	 5 2 3 1
      1.57771633285358036779e-05 	 5 2 3 2
      4.62833403662348506769e-04 	 5 2 3 3
      1.56758734641116114189e-05 	 5 2 4 1
      8.56949632215043172493e-05 	 5 2 4 2
      3.14536340673672725089e-06 	 5 2 4 3
      6.37730365656567722496e-04 	 5 2 4 4
      4.98227172221155605844e-06 	 5 2 5 1
      3.84095170962564080169e-04 	 5 2 5 2
     -6.80728437988739767630e-06 	 5 2 5 3
      8.56950892272875173724e-05 	 5 2 5 4
     -2.04335166988671955435e-03 	 5 2 5 5
     -1.54860237728579858125e-06 	 5 2 6 1
      6.80732553669840949226e-06 	 5 2 6 2
      1.57474804300354296425e-06 	 5 2 6 3
     -3.14529313081546195912e-06 	 5 2 6 4
     -1.57773014231254475799e-05 	 5 2 6 5
      4.62834210195021511329e-04 	 5 2 6 6
      6.23413432201472476175e-06 	 5 2 7 1
      3.93825736139811154440e-04 	 5 2 7 2
      5.95813511093961138237e-06 	 5 2 7 3
      3.62165839504283973340e-05 	 5 2 7 4
     -4.35917202198424677778e-05 	 5 2 7 5
     -1.22205009754240225479e-06 	 5 2 7 6
      1.12663253740833140155e-03 	 5 2 7 7
      3.44475833813088477679e-05 	 5 2 8 1
      6.94224072740023327548e-04 	 5 2 8 2
      1.15237653363506734782e-05 	 5 2 8 3
      5.67227965179169479589e-05 	 5 2 8 4
      6.94221965248099839169e-04 	 5 2 8 5
     -1.15238652715600952640e-05 	 5 2 8 6
     -6.42535333669764358294e-05 	 5 2 8 7
     -6.36015568690443539035e-03 	 5 2 8 8
     -6.23417998172501327219e-06 	 5 2 9 1
      4.35914263644812471172e-05 	 5 2 9 2
     -1.22191951344393849685e-06 	 5 2 9 3
     -3.62167833173041345783e-05 	 5 2 9 4
     -3.93826974222227636259e-04 	 5 2 9 5
      5.95813170848493737830e-06 	 5 2 9 6
     -3.43401679233738685781e-05 	 5 2 9 7
      6.42529277430844031902e-05 	 5 2 9 8
      1.12663840884164230018e-03 	 5 2 9 9
     -2.03726857640970090502e-04 	 5 3 1 1
     -3.06608177772764220149e-07 	 5 3 2 1
      5.25061676141835411758e-06 	 5 3 2 2
     -1.36986203243089942804e-05 	 5 3 3 1
     -5.75582900797314164326e-06 	 5 3 3 2
      3.70720373092595610609e-04 	 5 3 3 3
      2.14273947853899223662e-05 	 5 3 4 1
      9.74280377722169707013e-07 	 5 3 4 2
      7.40955382123712798784e-06 	 5 3 4 3
     -3.27493835805104532583e-04 	 5 3 4 4
      6.32620447037759119888e-06 	 5 3 5 1
     -6.80728437988778053519e-06 	 5 3 5 2
      4.41273586219396882847e-06 	 5 3 5 3
      1.23741954910644629037e-06 	 5 3 5 4
      7.22172778380222781663e-04 	 5 3 5 5
     -4.34183231619560404705e-06 	 5 3 6 1
     -7.70372716382720390153e-07 	 5 3 6 2
     -7.61955275747704504692e-06 	 5 3 6 3
      1.01844736772026604463e-06 	 5 3 6 4
      1.89299354995023874552e-06 	 5 3 6 5
     -2.31960218702231016309e-04 	 5 3 6 6
      7.45809399763158073585e-06 	 5 3 7 1
     -4.75832645300891413851e-06 	 5 3 7 2
      7.55743784999210790730e-06 	 5 3 7 3
      1.69255349969968742254e-06 	 5 3 7 4
     -9.95835594307900549295e-06 	 5 3 7 5
      7.96913415993915137663e-07 	 5 3 7 6
     -1.84314445582151970006e-04 	 5 3 7 7
     -8.76946811342585652134e-07 	 5 3 8 1
      8.53262854550095471077e-06 	 5 3 8 2
     -2.12751695465209535242e-06 	 5 3 8 3
      1.84518790683947539683e-06 	 5 3 8 4
     -1.66882162241292658395e-05 	 5 3 8 5
      2.87658270632433756073e-07 	 5 3 8 6
     -6.84658881787193889464e-07 	 5 3 8 7
      2.30784049513698145874e-04 	 5 3 8 8
     -5.53523491683897256831e-06 	 5 3 9 1
     -1.56262008473521452596e-06 	 5 3 9 2
      2.66907876989777440632e-06 	 5 3 9 3
     -4.04344987062045735848e-05 	 5 3 9 4
     -8.81112944757264848143e-06 	 5 3 9 5
      4.51827639645362419326e-06 	 5 3 9 6
     -1.27997303995685305056e-05 	 5 3 9 7
     -1.79011776203083711797e-05 	 5 3 9 8
     -1.57850712447097209310e-04 	 5 3 9 9
      5.00992496628125901816e-04 	 5 4 1 1
      1.44441186411193720136e-05 	 5 4 2 1
     -1.15022503008198307382e-03 	 5 4 2 2
      1.03717074540053881093e-04 	 5 4 3 1
     -7.70468281608850248187e-07 	 5 4 3 2
     -3.42310425606768978582e-04 	 5 4 3 3
     -6.75438889144791749543e-05 	 5 4 4 1
     -9.16868195648185197767e-05 	 5 4 4 2
     -5.84295923143078840584e-05 	 5 4 4 3
     -1.90187060871100993217e-04 	 5 4 4 4
      2.57150704521306849436e-05 	 5 4 5 1
      8.56950892272720674914e-05 	 5 4 5 2
      1.23741954910745193024e-06 	 5 4 5 3
      3.76917638456589405328e-04 	 5 4 5 4
      2.12448682999576664299e-03 	 5 4 5 5
      1.30522519181585006836e-04 	 5 4 6 1
     -9.74361533726100200579e-07 	 5 4 6 2
      9.03863004387650035925e-06 	 5 4 6 3
     -6.60100162219441166482e-05 	 5 4 6 4
     -2.65534420478425795789e-05 	 5 4 6 5
      1.38875556393980650882e-03 	 5 4 6 6
      1.30566517074945377642e-05 	 5 4 7 1
     -2.89093286061767479626e-05 	 5 4 7 2
     -1.92400283736801639897e-05 	 5 4 7 3
      5.99208098254438276641e-04 	 5 4 7 4
      3.51427700438094821789e-05 	 5 4 7 5
     -1.96130207330061018321e-05 	 5 4 7 6
     -2.04097915928342678316e-03 	 5 4 7 7
      8.74538297008245696720e-06 	 5 4 8 1
      1.35598581723545390525e-05 	 5 4 8 2
      2.75869570871830706867e-07 	 5 4 8 3
      6.04312537619144607101e-05 	 5 4 8 4
      4.33948415566410194890e-04 	 5 4 8 5
     -6.41142932387193137281e-06 	 5 4 8 6
      2.59028450892862157891e-05 	 5 4 8 7
     -1.38033916586060992696e-03 	 5 4 8 8
     -3.32013010149203560868e-05 	 5 4 9 1
      5.14391021240000523621e-05 	 5 4 9 2
      6.30112774756217372573e-06 	 5 4 9 3
      5.05800105910688357035e-04 	 5 4 9 4
     -6.47021489923617961620e-04 	 5 4 9 5
      4.58574649859012825051e-05 	 5 4 9 6
      2.87081830441620930558e-05 	 5 4 9 7
     -9.00795711180117587760e-05 	 5 4 9 8
      5.23647689801177203955e-03 	 5 4 9 9
      1.37200584965701838369e-01 	 5 5 1 1
     -1.07006591221288463759e-04 	 5 5 2 1
      1.93293821713545838081e-01 	 5 5 2 2
      9.43545564865079142668e-04 	 5 5 3 1
     -3.03392843997633037865e-05 	 5 5 3 2
      1.09398477896717416513e-01 	 5 5 3 3
      2.88781590242308911984e-03 	 5 5 4 1
     -1.15022374374107146447e-03 	 5 5 4 2
     -3.96563438709826175579e-04 	 5 5 4 3
      2.00350766439442606881e-01 	 5 5 4 4
      1.33595924071906973878e-03 	 5 5 5 1
     -2.04335166988666360952e-03 	 5 5 5 2
      7.22172778380220396419e-04 	 5 5 5 3
      2.12448682999572544330e-03 	 5 5 5 4
      5.18446381536143530155e-01 	 5 5 5 5
      1.36083654730635228365e-05 	 5 5 6 1
     -5.24989626393693195827e-06 	 5 5 6 2
      5.94137808946488686808e-04 	 5 5 6 3
     -3.32816946447886310295e-04 	 5 5 6 4
      3.87436206358320929131e-05 	 5 5 6 5
      1.25652866144494529399e-01 	 5 5 6 6
     -1.73814246424269357866e-03 	 5 5 7 1
      3.65496834075660194732e-03 	 5 5 7 2
      6.16436652864080550894e-05 	 5 5 7 3
     -2.44256095196656447532e-03 	 5 5 7 4
     -1.78859797629525823885e-03 	 5 5 7 5
      2.86688792359108559314e-04 	 5 5 7 6
      1.68785817790850722897e-01 	 5 5 7 7
      2.46740788580751080764e-06 	 5 5 8 1
     -1.95606742520882228090e-03 	 5 5 8 2
     -1.32286028098152318036e-04 	 5 5 8 3
      9.13624802913814786608e-04 	 5 5 8 4
     -1.58311669719683155433e-02 	 5 5 8 5
     -1.42847170828184371651e-04 	 5 5 8 6
     -1.11402026010363401458e-03 	 5 5 8 7
      2.97438493259391756318e-01 	 5 5 8 8
      1.50268278120802164198e-03 	 5 5 9 1
     -1.29391396511540517945e-03 	 5 5 9 2
      8.40187349110354609119e-04 	 5 5 9 3
      1.43159327246853720038e-03 	 5 5 9 4
     -1.64319219812811001535e-02 	 5 5 9 5
      1.63140844823428062850e-03 	 5 5 9 6
     -8.61683679500460479594e-04 	 5 5 9 7
     -6.24835058534717064510e-03 	 5 5 9 8
      2.98487130367854125446e-01 	 5 5 9 9
      8.48872872409911645962e-04 	 6 1 1 1
      4.70672027651101510578e-05 	 6 1 2 1
     -9.43544253155807343021e-04 	 6 1 2 2
      1.37241612948399427374e-03 	 6 1 3 1
      1.89235451173858470484e-06 	 6 1 3 2
     -3.98323050145161280250e-03 	 6 1 3 3
      7.63882927594642172076e-04 	 6 1 4 1
     -1.03716909128208446063e-04 	 6 1 4 2
     -1.07961636825009018280e-04 	 6 1 4 3
     -2.50209271141130966745e-03 	 6 1 4 4
     -1.11160101199178580405e-04 	 6 1 5 1
     -1.54860237730642891571e-06 	 6 1 5 2
     -4.34183231619373125721e-06 	 6 1 5 3
      1.30522519181603844848e-04 	 6 1 5 4
      1.36083654729739829837e-05 	 6 1 5 5
      5.30940682804840590608e-03 	 6 1 6 1
     -1.36989958327575368899e-05 	 6 1 6 2
      4.33155710675715767844e-04 	 6 1 6 3
      3.73174788764336941836e-05 	 6 1 6 4
      3.60115015915163125628e-06 	 6 1 6 5
      1.10708960457469307581e-02 	 6 1 6 6