[Molden Format]
[Atoms] (AU)
C    1    6          -3.5627646139         2.2867634838         0.0002476130
C    2    6          -0.9340667562         2.3015392524         0.0003061945
C    3    6           0.3353038562         0.0000002302         0.0003269815
H    4    1          -4.5855732101         4.0624635348        -0.0003268637
H    5    1           0.1361871938         4.0428122729         0.0001758034
N    6    7           3.1331189740         0.0000002302         0.0001795829
O    7    8           4.2036582727        -2.0493227152        -0.0002361569
O    8    8           4.2036582727         2.0493212859        -0.0004232398
C    9    6          -3.5627665036        -2.2867630234         0.0001682445
H   10    1          -4.5855769896        -4.0624611847        -0.0004780418
C   11    6          -0.9340686460        -2.3015387920         0.0002381644
H   12    1           0.1361853041        -4.0428118125         0.0000718685
C   13    6          -4.8749507511         0.0000002302        -0.0003967836
H   14    1          -6.9252450158         0.0000002302        -0.0020748604
[GTO]
  1 0
 s    6  1.00
     4563.2400000000         0.0019666500
      682.0240000000         0.0152306000
      154.9730000000         0.0761269000
       44.4553000000         0.2608010000
       13.0290000000         0.6164620000
        1.8277300000         0.2210060000
 s    3  1.00
       20.9642000000         0.1146600000
        4.8033100000         0.9199990000
        1.4593300000        -0.0030306800
 p    3  1.00
       20.9642000000         0.0402487000
        4.8033100000         0.2375940000
        1.4593300000         0.8158540000
 s    1  1.00
        0.4834560000         1.0000000000
 p    1  1.00
        0.4834560000         1.0000000000
 s    1  1.00
        0.1455850000         1.0000000000
 p    1  1.00
        0.1455850000         1.0000000000
 d    1  1.00
        0.6260000000         1.0000000000

  2 0
 s    6  1.00
     4563.2400000000         0.0019666500
      682.0240000000         0.0152306000
      154.9730000000         0.0761269000
       44.4553000000         0.2608010000
       13.0290000000         0.6164620000
        1.8277300000         0.2210060000
 s    3  1.00
       20.9642000000         0.1146600000
        4.8033100000         0.9199990000
        1.4593300000        -0.0030306800
 p    3  1.00
       20.9642000000         0.0402487000
        4.8033100000         0.2375940000
        1.4593300000         0.8158540000
 s    1  1.00
        0.4834560000         1.0000000000
 p    1  1.00
        0.4834560000         1.0000000000
 s    1  1.00
        0.1455850000         1.0000000000
 p    1  1.00
        0.1455850000         1.0000000000
 d    1  1.00
        0.6260000000         1.0000000000

  3 0
 s    6  1.00
     4563.2400000000         0.0019666500
      682.0240000000         0.0152306000
      154.9730000000         0.0761269000
       44.4553000000         0.2608010000
       13.0290000000         0.6164620000
        1.8277300000         0.2210060000
 s    3  1.00
       20.9642000000         0.1146600000
        4.8033100000         0.9199990000
        1.4593300000        -0.0030306800
 p    3  1.00
       20.9642000000         0.0402487000
        4.8033100000         0.2375940000
        1.4593300000         0.8158540000
 s    1  1.00
        0.4834560000         1.0000000000
 p    1  1.00
        0.4834560000         1.0000000000
 s    1  1.00
        0.1455850000         1.0000000000
 p    1  1.00
        0.1455850000         1.0000000000
 d    1  1.00
        0.6260000000         1.0000000000

  4 0
 s    3  1.00
       33.8650000000         0.0254938000
        5.0947900000         0.1903730000
        1.1587900000         0.8521610000
 s    1  1.00
        0.3258400000         1.0000000000
 s    1  1.00
        0.1027410000         1.0000000000

  5 0
 s    3  1.00
       33.8650000000         0.0254938000
        5.0947900000         0.1903730000
        1.1587900000         0.8521610000
 s    1  1.00
        0.3258400000         1.0000000000
 s    1  1.00
        0.1027410000         1.0000000000

  6 0
 s    6  1.00
     6293.4800000000         0.0019697900
      949.0440000000         0.0149613000
      218.7760000000         0.0735006000
       63.6916000000         0.2489370000
       18.8282000000         0.6024600000
        2.7202300000         0.2562020000
 s    3  1.00
       30.6331000000         0.1119060000
        7.0261400000         0.9216660000
        2.1120500000        -0.0025691900
 p    3  1.00
       30.6331000000         0.0383119000
        7.0261400000         0.2374030000
        2.1120500000         0.8175920000
 s    1  1.00
        0.6840090000         1.0000000000
 p    1  1.00
        0.6840090000         1.0000000000
 s    1  1.00
        0.2008780000         1.0000000000
 p    1  1.00
        0.2008780000         1.0000000000
 d    1  1.00
        0.9130000000         1.0000000000

  7 0
 s    6  1.00
     8588.5000000000         0.0018951500
     1297.2300000000         0.0143859000
      299.2960000000         0.0707320000
       87.3771000000         0.2400010000
       25.6789000000         0.5947970000
        3.7400400000         0.2808020000
 s    3  1.00
       42.1175000000         0.1138890000
        9.6283700000         0.9208110000
        2.8533200000        -0.0032744700
 p    3  1.00
       42.1175000000         0.0365114000
        9.6283700000         0.2371530000
        2.8533200000         0.8197020000
 s    1  1.00
        0.9056610000         1.0000000000
 p    1  1.00
        0.9056610000         1.0000000000
 s    1  1.00
        0.2556110000         1.0000000000
 p    1  1.00
        0.2556110000         1.0000000000
 d    1  1.00
        1.2920000000         1.0000000000

  8 0
 s    6  1.00
     8588.5000000000         0.0018951500
     1297.2300000000         0.0143859000
      299.2960000000         0.0707320000
       87.3771000000         0.2400010000
       25.6789000000         0.5947970000
        3.7400400000         0.2808020000
 s    3  1.00
       42.1175000000         0.1138890000
        9.6283700000         0.9208110000
        2.8533200000        -0.0032744700
 p    3  1.00
       42.1175000000         0.0365114000
        9.6283700000         0.2371530000
        2.8533200000         0.8197020000
 s    1  1.00
        0.9056610000         1.0000000000
 p    1  1.00
        0.9056610000         1.0000000000
 s    1  1.00
        0.2556110000         1.0000000000
 p    1  1.00
        0.2556110000         1.0000000000
 d    1  1.00
        1.2920000000         1.0000000000

  9 0
 s    6  1.00
     4563.2400000000         0.0019666500
      682.0240000000         0.0152306000
      154.9730000000         0.0761269000
       44.4553000000         0.2608010000
       13.0290000000         0.6164620000
        1.8277300000         0.2210060000
 s    3  1.00
       20.9642000000         0.1146600000
        4.8033100000         0.9199990000
        1.4593300000        -0.0030306800
 p    3  1.00
       20.9642000000         0.0402487000
        4.8033100000         0.2375940000
        1.4593300000         0.8158540000
 s    1  1.00
        0.4834560000         1.0000000000
 p    1  1.00
        0.4834560000         1.0000000000
 s    1  1.00
        0.1455850000         1.0000000000
 p    1  1.00
        0.1455850000         1.0000000000
 d    1  1.00
        0.6260000000         1.0000000000

  10 0
 s    3  1.00
       33.8650000000         0.0254938000
        5.0947900000         0.1903730000
        1.1587900000         0.8521610000
 s    1  1.00
        0.3258400000         1.0000000000
 s    1  1.00
        0.1027410000         1.0000000000

  11 0
 s    6  1.00
     4563.2400000000         0.0019666500
      682.0240000000         0.0152306000
      154.9730000000         0.0761269000
       44.4553000000         0.2608010000
       13.0290000000         0.6164620000
        1.8277300000         0.2210060000
 s    3  1.00
       20.9642000000         0.1146600000
        4.8033100000         0.9199990000
        1.4593300000        -0.0030306800
 p    3  1.00
       20.9642000000         0.0402487000
        4.8033100000         0.2375940000
        1.4593300000         0.8158540000
 s    1  1.00
        0.4834560000         1.0000000000
 p    1  1.00
        0.4834560000         1.0000000000
 s    1  1.00
        0.1455850000         1.0000000000
 p    1  1.00
        0.1455850000         1.0000000000
 d    1  1.00
        0.6260000000         1.0000000000

  12 0
 s    3  1.00
       33.8650000000         0.0254938000
        5.0947900000         0.1903730000
        1.1587900000         0.8521610000
 s    1  1.00
        0.3258400000         1.0000000000
 s    1  1.00
        0.1027410000         1.0000000000

  13 0
 s    6  1.00
     4563.2400000000         0.0019666500
      682.0240000000         0.0152306000
      154.9730000000         0.0761269000
       44.4553000000         0.2608010000
       13.0290000000         0.6164620000
        1.8277300000         0.2210060000
 s    3  1.00
       20.9642000000         0.1146600000
        4.8033100000         0.9199990000
        1.4593300000        -0.0030306800
 p    3  1.00
       20.9642000000         0.0402487000
        4.8033100000         0.2375940000
        1.4593300000         0.8158540000
 s    1  1.00
        0.4834560000         1.0000000000
 p    1  1.00
        0.4834560000         1.0000000000
 s    1  1.00
        0.1455850000         1.0000000000
 p    1  1.00
        0.1455850000         1.0000000000
 d    1  1.00
        0.6260000000         1.0000000000

  14 0
 s    3  1.00
       33.8650000000         0.0254938000
        5.0947900000         0.1903730000
        1.1587900000         0.8521610000
 s    1  1.00
        0.3258400000         1.0000000000
 s    1  1.00
        0.1027410000         1.0000000000

[5D]
[9G]

[MO]
 Sym= A
 Ene=        -2.0596438505e+01
 Spin= Alpha
 Occup=         0.0000000000e+00
  1        -8.0728501040e-08
  2         8.1767434615e-07
  3        -1.0948541032e-06
  4        -1.9319365282e-06
  5        -1.7023384722e-09
  6        -2.1072113074e-06
  7         1.6170084370e-06
  8         8.7187442851e-06
  9         5.6770372043e-09
 10        -1.2872679966e-04
 11        -2.4551395669e-04
 12        -2.4563231341e-04
 13        -5.7373693269e-08
 14         4.5424978557e-06
 15         1.2683328037e-09
 16         7.2145110152e-09
 17        -5.1253760033e-06
 18         2.7631925079e-06
 19        -5.2980219868e-07
 20         4.7778006190e-07
 21         1.9775874209e-07
 22        -1.7956775242e-06
 23         4.5719692508e-09
 24        -3.7980028561e-07
 25        -7.0434775504e-06
 26         1.1381157216e-05
 27        -1.6418415813e-08
 28        -8.7718733368e-04
 29        -6.1408485876e-04
 30         5.1671277822e-04
 31         2.5375977044e-08
 32         1.6894054609e-06
 33        -8.6920738956e-10
 34         5.1026452471e-10
 35         9.7120529624e-06
 36         1.5600135183e-05
 37        -7.5237128296e-09
 38        -2.8738915287e-09
 39         5.6482656056e-08
 40        -5.1095200153e-06
 41         8.7512144492e-10
 42        -6.0415410920e-08
 43        -9.9758580749e-08
 44         1.9029236000e-05
 45        -3.6453776677e-09
 46         1.7699424988e-06
 47        -6.5688476182e-08
 48         1.6688140854e-03
 49         5.8319493820e-09
 50        -1.4685676003e-08
 51        -3.2964228703e-09
 52        -4.0969717347e-09
 53        -1.2309985410e-07
 54         2.5878077802e-05
 55        -1.1412512076e-06
 56         2.8726554575e-05
 57         2.7571794830e-05
 58         6.0296841837e-08
 59         4.4426040290e-05
 60        -8.9946372591e-05
 61        -1.2737217532e-07
 62         1.8976697636e-07
 63        -1.7133388949e-07
 64        -6.8515268230e-05
 65         2.9414784058e-09
 66        -9.6272863645e-07
 67        -7.7552353728e-07
 68        -4.3428797160e-04
 69         2.1177286403e-08
 70        -2.6316813123e-06
 71        -9.9295113129e-07
 72        -1.3143530583e-03
 73         4.5779298084e-08
 74         3.8244267836e-07
 75         1.3299487460e-08
 76         1.3238425710e-07
 77         5.8327693381e-07
 78        -2.7409979291e-04
 79         3.8860869170e-01
 80         3.3239006195e-01
 81        -7.0608537200e-04
 82         1.2762013752e-03
 83         3.2220502243e-07
 84         3.7543648929e-03
 85         2.7666982307e-04
 86        -5.2142812983e-04
 87        -1.2864921803e-07
 88        -1.0181038076e-03
 89         1.8274256925e-04
 90        -1.1629869524e-04
 91        -9.4032104856e-08
 92        -3.2986679756e-05
 93        -2.1481007142e-08
 94        -7.5859096185e-08
 95         9.6772509280e-05
 96         1.4409287035e-04
 97        -3.9132969920e-01
 98        -3.3471743227e-01
 99         7.1101461215e-04
100         1.2849739756e-03
101        -4.4641376868e-07
102        -3.7805094048e-03
103        -2.7836990668e-04
104        -5.2481315424e-04
105         1.7656617692e-07
106         1.0220848103e-03
107        -1.8274120163e-04
108        -1.1672064329e-04
109         1.1466957811e-07
110         3.3308481570e-05
111         6.1577733417e-09
112        -8.0236294308e-08
113        -9.7395601429e-05
114         1.4488118119e-04
115         8.1834649874e-08
116        -8.2434895210e-07
117         1.0961891675e-06
118        -1.9168458098e-06
119         1.2187930769e-09
120         2.2199869859e-06
121        -1.6266926259e-06
122         8.6566276436e-06
123        -3.8996699818e-09
124         1.2647681562e-04
125         2.4428921876e-04
126        -2.4537860862e-04
127         4.1149085881e-08
128        -4.4949694070e-06
129        -1.3731455122e-09
130         7.1843465185e-09
131         5.1002844752e-06
132         2.7460370771e-06
133         1.1477471270e-06
134        -2.8656913459e-05
135        -2.7583720665e-05
136         5.2724471163e-07
137        -4.6995442547e-07
138        -2.2916553808e-07
139        -1.8021608444e-06
140        -3.9522055733e-09
141         3.5789740797e-07
142         7.1309677730e-06
143         1.1329973533e-05
144         1.3340399588e-08
145         8.7775412153e-04
146         6.1202633593e-04
147         5.1564614957e-04
148         1.0718657848e-08
149        -1.6326303664e-06
150         2.2526200995e-09
151         2.9583180893e-09
152        -9.5869877431e-06
153         1.5477861400e-05
154        -5.6388950648e-08
155        -4.4271269281e-05
156         8.9536772572e-05
157        -1.0924764786e-10
158        -2.4905660980e-10
159        -1.4618892497e-09
160        -2.6028224317e-07
161         1.8217132738e-10
162        -1.1750952938e-08
163         9.0087229712e-09
164        -1.9737584527e-07
165        -5.7830731927e-10
166        -8.9509693504e-08
167         3.1080327737e-07
168        -2.4819650135e-04
169        -1.0415277564e-09
170        -7.1714211256e-10
171         1.5150700091e-10
172        -4.5983517876e-09
173        -1.4695154842e-09
174        -3.4542741043e-06
175        -9.6238270683e-09
176         1.0451137702e-07
177         3.9702748563e-08
 Sym= A
 Ene=        -2.0596386274e+01
 Spin= Alpha
 Occup=         0.0000000000e+00
  1        -1.5873186198e-07
  2         9.5897667537e-07
  3        -1.9543866787e-07
  4         2.1556177413e-06
  5         1.0906054222e-09
  6        -1.6163609937e-05
  7         1.3925929153e-06
  8        -8.8695228925e-06
  9        -4.0748688828e-09
 10         3.2188773347e-04
 11         1.7459791518e-04
 12         3.5527507088e-05
 13         1.8559354111e-08
 14        -6.7939925399e-06
 15         9.5761440940e-11
 16        -3.6109820822e-10
 17         3.5773069138e-06
 18        -2.4475516741e-06
 19         3.6468523630e-07
 20        -1.1202365968e-06
 21         4.4982529551e-06
 22        -9.3590652538e-07
 23        -1.0236611195e-09
 24         3.1273364026e-06
 25        -1.2550777023e-05
 26        -7.2944901390e-06
 27         7.1853204684e-09
 28        -8.4227707093e-05
 29         2.9281765216e-04
 30        -1.5109840740e-04
 31        -2.7989414303e-08
 32        -8.1363423466e-06
 33        -1.5198961389e-09
 34         3.4431636024e-09
 35        -1.7884093248e-05
 36        -1.7470807418e-05
 37         2.1565458723e-06
 38         8.2260948221e-07
 39        -1.6188761434e-05
 40        -1.7820164435e-08
 41        -1.5082080489e-09
 42         1.7323970833e-05
 43         2.8588725412e-05
 44         6.6344444019e-08
 45         8.9872533901e-09
 46        -5.0719351807e-04
 47         1.9147194453e-05
 48         5.8189134149e-06
 49         5.5470992259e-08
 50         4.2120948296e-06
 51         6.7652262333e-09
 52        -1.0067432473e-09
 53         3.5287525612e-05
 54         9.0282079813e-08
 55        -9.3398903805e-07
 56        -9.8809267311e-06
 57         1.7925862491e-06
 58        -5.6127765367e-07
 59        -2.2014317371e-05
 60         5.8413710208e-05
 61         3.6478749342e-05
 62        -5.4371835365e-05
 63         4.9070800442e-05
 64        -2.3872967237e-07
 65        -2.1789164187e-08
 66         2.7577186528e-04
 67         2.2220523195e-04
 68        -1.5150320834e-06
 69        -7.8720074211e-08
 70         7.5348662718e-04
 71         2.8441716496e-04
 72        -4.5830790711e-06
 73        -1.6805376938e-07
 74        -1.0960230058e-04
 75        -3.2693417425e-08
 76        -1.5735766258e-08
 77        -1.6718717421e-04
 78        -9.5615989851e-07
 79         3.9133240697e-01
 80         3.3471989895e-01
 81        -7.0877591709e-04
 82         1.2616637016e-03
 83         3.2815398701e-07
 84         3.7599218153e-03
 85         2.4457573824e-04
 86        -4.8693945681e-04
 87        -1.3014847430e-07
 88        -5.7358609346e-04
 89         3.5624353861e-07
 90        -6.0757499143e-05
 91         3.7178284353e-08
 92        -4.6158077583e-05
 93        -3.0955130980e-08
 94        -6.1046324848e-08
 95         8.9681770904e-05
 96         1.1352159084e-04
 97         3.8861141767e-01
 98         3.3239254558e-01
 99        -7.0383310611e-04
100        -1.2527290213e-03
101         4.4496251927e-07
102         3.7336365359e-03
103         2.4263961037e-04
104         4.8328933359e-04
105        -1.7315143483e-07
106        -5.6647268010e-04
107        -9.1797216903e-07
108         5.9945716897e-05
109         2.8072674131e-08
110        -4.5927353269e-05
111        -1.8349927962e-08
112         6.1037806544e-08
113         8.9003939693e-05
114        -1.1251316237e-04
115        -1.5816537935e-07
116         9.5325077821e-07
117        -1.8780368915e-07
118        -2.1690404534e-06
119         5.8361156317e-10
120        -1.6148532781e-05
121         1.3812993330e-06
122         8.9301247502e-06
123        -2.4106121240e-09
124         3.2277787167e-04
125         1.7630606068e-04
126        -3.7239655813e-05
127         1.3463551310e-08
128        -6.8255122829e-06
129         4.9771271927e-12
130         5.1985621088e-10
131         3.6129620721e-06
132         2.4667584052e-06
133        -9.2601306011e-07
134        -1.0080979022e-05
135         1.6002376996e-06
136         3.6837163152e-07
137        -1.1235384956e-06
138         4.4967753199e-06
139         9.2337971591e-07
140         2.7357637511e-10
141         3.1299307838e-06
142        -1.2501425434e-05
143         7.3735404364e-06
144         3.0294324386e-09
145        -7.8109196437e-05
146         2.9709322799e-04
147         1.5469827878e-04
148        -1.3186800072e-08
149        -8.1479036664e-06
150        -6.7366887565e-10
151        -2.2718038007e-09
152        -1.7951375080e-05
153         1.7579169030e-05
154        -5.6168293370e-07
155        -2.2323637398e-05
156         5.9039893464e-05
157         3.1333948128e-08
158         7.1249454496e-08
159         4.1889319050e-07
160        -9.1373259098e-10
161        -5.5157052004e-11
162         3.3704625768e-06
163        -2.5816350335e-06
164        -6.5486129697e-10
165        -1.4741656318e-09
166         2.5710298354e-05
167        -8.9099687768e-05
168        -8.6552356531e-07
169        -2.6383050150e-08
170         2.0631256902e-07
171         3.1304143087e-09
172        -2.1417864014e-10
173         4.2174765203e-07
174        -1.2037276780e-08
175         2.7591908269e-06
176        -2.9961390891e-05
177        -1.1377041891e-05
 Sym= A
 Ene=        -1.5852610040e+01
 Spin= Alpha
 Occup=         0.0000000000e+00
  1        -1.1748547219e-07
  2        -1.0490454524e-06
  3         1.0148536802e-06
  4        -2.1294464529e-07
  5        -9.0723987917e-10
  6         7.6789401300e-06
  7        -1.0717815922e-06
  8         4.8858109346e-06
  9         5.2244465185e-09
 10        -5.3327398965e-04
 11        -1.7537292362e-04
 12         8.1411407187e-05
 13        -1.8275720081e-08
 14        -1.2288679649e-06
 15         7.8102014790e-10
 16        -2.8117380401e-09
 17         1.4807379527e-06
 18        -7.6454777827e-06
 19         1.1655153285e-06
 20        -1.5731502522e-06
 21        -1.2762635966e-05
 22         1.0421566405e-05
 23         1.5459115707e-09
 24        -1.1708083179e-05
 25         4.4250403123e-05
 26        -5.1837602896e-05
 27        -7.3232187544e-09
 28         5.7826738952e-04
 29        -4.1058273911e-04
 30        -2.4863422706e-04
 31         3.4841463573e-08
 32        -1.3262382171e-05
 33         1.9694779578e-10
 34        -2.0170507373e-09
 35         1.3727393193e-06
 36        -2.2154763885e-05
 37         5.3419692201e-06
 38        -1.9606521664e-05
 39         6.0551223131e-05
 40        -2.5415445987e-11
 41        -3.7233536253e-09
 42         1.5162177547e-04
 43         1.9028965638e-04
 44        -1.2509763414e-10
 45        -5.5863059748e-09
 46         7.4090343764e-05
 47         9.1414858917e-04
 48        -1.7716074854e-09
 49        -4.0847465300e-08
 50        -4.5639064182e-06
 51        -9.9150755043e-09
 52         7.5248844949e-10
 53         1.2582079150e-04
 54         1.2603592387e-10
 55        -2.0956794639e-06
 56         5.2931990722e-06
 57        -1.4385578275e-05
 58        -8.6511781839e-06
 59         9.0018657331e-05
 60         5.0393825614e-05
 61         5.5789705657e-01
 62         4.6829370166e-01
 63         3.9006679080e-04
 64         2.7494330596e-09
 65        -1.8457781254e-07
 66         4.2162822026e-03
 67        -1.9448734175e-04
 68        -1.0101661598e-09
 69         1.9435941352e-08
 70        -8.1248616744e-04
 71         5.3011202942e-04
 72         1.9420762950e-09
 73        -3.2533272476e-08
 74        -2.1276647452e-04
 75        -8.0491351939e-08
 76        -1.8172895602e-08
 77        -5.4974284523e-05
 78         3.0124286637e-10
 79        -1.1707896815e-04
 80        -1.6118908470e-04
 81        -5.6936372117e-05
 82         9.1703579146e-05
 83         1.4259227506e-08
 84         2.5482121145e-04
 85        -1.3707799022e-04
 86         3.1780821719e-04
 87         5.0228229564e-08
 88        -1.5679533854e-05
 89        -5.7134127644e-05
 90        -5.9691762528e-05
 91        -1.6349582771e-08
 92        -4.8157575869e-05
 93         6.1043440318e-10
 94         3.7346067234e-08
 95        -9.9361348613e-05
 96        -1.2280059058e-04
 97        -1.1707946261e-04
 98        -1.6118982759e-04
 99        -5.6936591528e-05
100        -9.1703934924e-05
101         2.3022266955e-08
102         2.5482246147e-04
103        -1.3707857322e-04
104        -3.1780905076e-04
105         7.7049446184e-08
106        -1.5681468189e-05
107        -5.7133790810e-05
108         5.9692398618e-05
109        -1.7681499539e-08
110        -4.8157796108e-05
111        -1.1224775276e-08
112        -5.3697172713e-08
113        -9.9361538125e-05
114         1.2280115490e-04
115        -1.1748741320e-07
116        -1.0490328334e-06
117         1.0148674179e-06
118         2.1293746829e-07
119        -6.0427026896e-10
120         7.6788925853e-06
121        -1.0719107987e-06
122        -4.8857857222e-06
123         4.1927525395e-09
124        -5.3327393093e-04
125        -1.7537303846e-04
126        -8.1411613242e-05
127        -1.8857987410e-08
128        -1.2288413963e-06
129         1.2614681591e-09
130         2.7436005288e-09
131         1.4806799747e-06
132         7.6454816051e-06
133        -2.0956783225e-06
134         5.2930853769e-06
135        -1.4385675237e-05
136         1.1655106476e-06
137        -1.5731339602e-06
138        -1.2762616948e-05
139        -1.0421536208e-05
140         4.4159602160e-12
141        -1.1708184769e-05
142         4.4250176908e-05
143         5.1837319566e-05
144        -1.9034131256e-09
145         5.7826519134e-04
146        -4.1058295867e-04
147         2.4863354976e-04
148         3.4512185234e-08
149        -1.3262382343e-05
150         1.4543249529e-09
151         3.7191669537e-09
152         1.3728917183e-06
153         2.2154716286e-05
154        -8.6511780871e-06
155         9.0018629705e-05
156         5.0393788758e-05
157        -1.6025098483e-07
158         7.0875831310e-07
159         6.0826927485e-08
160        -2.0194502765e-12
161         1.4123638653e-09
162        -1.6606673672e-05
163         7.0025458772e-07
164         6.7371055251e-12
165        -4.3605088266e-09
166         2.2913043054e-04
167         1.8116490573e-04
168        -2.1210449152e-11
169         9.4806441019e-08
170        -5.7494150046e-06
171         1.3238788096e-09
172         3.2503639638e-10
173        -5.4360813617e-06
174         1.9341499175e-11
175        -4.0076917820e-06
176         3.3181254592e-05
177         3.0159593639e-05
 Sym= A
 Ene=        -1.1313586095e+01
 Spin= Alpha
 Occup=         0.0000000000e+00
  1         7.1241952743e-05
  2         6.2340381406e-05
  3         5.7588444774e-06
  4         8.1890030224e-06
  5         1.5074740883e-09
  6        -3.0850389742e-05
  7        -2.8103860323e-05
  8        -1.8808952337e-05
  9        -3.7306359628e-09
 10        -3.7344407497e-04
 11        -1.2265088132e-04
 12        -6.8055894159e-05
 13         2.8369847470e-08
 14        -3.9458407263e-06
 15         2.1931784683e-10
 16        -1.5774239803e-09
 17        -1.7980626201e-05
 18        -3.3857671941e-05
 19         9.4694317806e-03
 20         7.8060722833e-03
 21         1.1173124760e-04
 22        -2.1243080378e-04
 23         4.5706706166e-09
 24         2.2814620943e-04
 25        -2.6802461584e-05
 26         6.8273142699e-05
 27         1.8332383091e-09
 28         5.9974283417e-04
 29        -4.2272586055e-04
 30        -3.4672286716e-04
 31        -1.8762088187e-08
 32         8.1753277927e-05
 33         6.0463592506e-09
 34        -4.9611598029e-10
 35         2.2094787025e-05
 36        -9.9785637818e-06
 37         5.6318665211e-01
 38         4.6640955723e-01
 39         1.2888695208e-03
 40        -8.8966635949e-10
 41         8.7981647766e-08
 42         4.3059772875e-03
 43        -1.2565001624e-03
 44         2.7742774150e-09
 45        -8.9813441212e-08
 46        -4.5054390135e-04
 47         1.5061323499e-03
 48        -1.4414116190e-10
 49         7.3495511017e-08
 50        -3.0658321394e-04
 51         2.5786766343e-09
 52         1.4325647061e-08
 53        -4.4468795077e-04
 54        -8.3092303248e-10
 55        -1.0188170786e-05
 56         4.4529304450e-05
 57         2.6454701824e-05
 58         6.0660301324e-06
 59         4.0664648229e-05
 60         1.4402832469e-04
 61        -8.5467364537e-05
 62        -1.6381200711e-04
 63        -5.7529678882e-05
 64         7.8879193340e-11
 65         2.2323723353e-09
 66         5.0692334326e-04
 67        -6.4770606883e-04
 68        -3.4317677247e-10
 69         1.0393601625e-07
 70        -6.7440582778e-04
 71         3.9464208595e-04
 72        -5.5887302435e-10
 73        -1.0949679995e-07
 74        -5.6984162065e-05
 75        -2.4952670582e-08
 76         5.8801949311e-09
 77         2.8791021682e-04
 78        -1.2808161376e-10
 79         2.6678679264e-06
 80        -5.7121635124e-06
 81         2.0113352624e-05
 82        -1.7087813151e-05
 83        -8.4843687965e-09
 84         5.6925743547e-05
 85        -1.4581143496e-05
 86         6.1826563395e-05
 87         7.6356702077e-09
 88        -1.0580383590e-04
 89         1.0628207325e-05
 90        -2.9698843827e-05
 91         8.3270369071e-09
 92        -1.4596037542e-05
 93        -7.5833341873e-09
 94         1.2327459773e-08
 95        -1.7846644125e-05
 96        -3.1768403262e-05
 97         2.6678712090e-06
 98        -5.7121776034e-06
 99         2.0113386673e-05
100         1.7087805584e-05
101        -1.0453715898e-08
102         5.6925800133e-05
103        -1.4581297409e-05
104        -6.1826834106e-05
105         1.4987569799e-08
106        -1.0580282279e-04
107         1.0627839516e-05
108         2.9698494005e-05
109         5.8903461529e-09
110        -1.4596089487e-05
111        -1.1375909956e-08
112        -1.6960322835e-08
113        -1.7846643647e-05
114         3.1768555157e-05
115         7.1241665901e-05
116         6.2340115598e-05
117         5.7588158839e-06
118        -8.1889825325e-06
119         1.1777651061e-09
120        -3.0850177566e-05
121        -2.8103656581e-05
122         1.8808779685e-05
123        -3.3640445414e-09
124        -3.7344602904e-04
125        -1.2265178783e-04
126         6.8054720686e-05
127         2.9359337099e-08
128        -3.9458900981e-06
129         9.6652018720e-10
130         2.1634901309e-09
131        -1.7980466270e-05
132         3.3857641560e-05
133        -1.0188155689e-05
134         4.4529032088e-05
135         2.6454386614e-05
136         9.4694251969e-03
137         7.8060666900e-03
138         1.1173107941e-04
139         2.1243034856e-04
140         1.0882805722e-08
141         2.2814675670e-04
142        -2.6801426577e-05
143        -6.8271377727e-05
144         1.0923077543e-09
145         5.9974554915e-04
146        -4.2272670914e-04
147         3.4672398929e-04
148        -1.0388059826e-08
149         8.1752961799e-05