15
Step 0  E=-3010.1863751102  phi=66.743  theta=61.830
C  -1.4691695350  1.1786639999 -1.6104647007
C  -0.0811303720  1.1968104512 -1.5863399352
C   0.5940614413 -0.0095744398 -1.4875845071
C  -2.1534075972 -0.0299290543 -1.5368138299
H  -2.0165711526  2.1110103684 -1.6873658797
H   0.4785672739  2.1200337912 -1.6420244029
H  -3.2359992642 -0.0376347967 -1.5562770670
N   2.0704127441  0.0013685415 -1.4611947441
O   2.6385060012 -1.0679000234 -1.3752929956
O   2.6251070774  1.0788183088 -1.5269887665
C  -1.4546800873 -1.2282835344 -1.4381878602
H  -1.9883360520 -2.1646431864 -1.3812921796
C  -0.0664264692 -1.2260400471 -1.4124977959
H   0.5038396620 -2.1396441809 -1.3363760147
BR -0.6501183997  0.0169710494  2.3240479889
15
Step 1  E=-3010.1864060736  phi=66.743  theta=61.826
C  -1.4698739122  1.1785626227 -1.6104299911
C  -0.0802706670  1.1966234542 -1.5863466835
C   0.5941323620 -0.0093715157 -1.4875999149
C  -2.1536964121 -0.0302691147 -1.5367755643
H  -2.0168675421  2.1106702014 -1.6877063688
H   0.4780406606  2.1183414476 -1.6424015602
H  -3.2309980912 -0.0369960246 -1.5562449829
N   2.0708958669  0.0015688338 -1.4612001959
O   2.6383780684 -1.0677626321 -1.3752231336
O   2.6247875447  1.0784749896 -1.5270727501
C  -1.4558695914 -1.2285923218 -1.4378932164
H  -1.9820865119 -2.1535006458 -1.3821454017
C  -0.0657209995 -1.2262066844 -1.4122489159
H   0.5015498767 -2.1347533614 -1.3370235919
BR -0.6501183997  0.0169710494  2.3240479889
15
Step 2  E=-3010.1857668398  phi=66.744  theta=61.819
C  -1.4710150745  1.1783919888 -1.6103714053
C  -0.0788745220  1.1962951738 -1.5863583620
C   0.5942564814 -0.0090298410 -1.4876246600
C  -2.1541194630 -0.0308453565 -1.5367101334
H  -2.0173889156  2.1101499328 -1.6882750159
H   0.4773113219  2.1157616828 -1.6430387088
H  -3.2234282265 -0.0359664554 -1.5562093444
N   2.0716890559  0.0018976000 -1.4612094889
O   2.6381679246 -1.0675386063 -1.3751062850
O   2.6242623690  1.0779127812 -1.5272133104
C  -1.4577404654 -1.2289514426 -1.4374119774
H  -1.9727202195 -2.1367340359 -1.3834599253
C  -0.0646124097 -1.2264226687 -1.4118381525
H   0.4981757812 -2.1273525648 -1.3380378148
BR -0.6501183997  0.0169710494  2.3240479889
15
Step 3  E=-3010.1838730025  phi=66.745  theta=61.808
C  -1.4725470393  1.1781489325 -1.6102880654
C  -0.0769953946  1.1958050185 -1.5863755895
C   0.5944422774 -0.0085486748 -1.4876573000
C  -2.1545962286 -0.0316667401 -1.5366153641
H  -2.0181712857  2.1095108158 -1.6890728829
H   0.4765823830  2.1126249345 -1.6439478462
H  -3.2143669929 -0.0345965816 -1.5561958636
N   2.0727745077  0.0023462220 -1.4612228427
O   2.6378801102 -1.0672348660 -1.3749418755
O   2.6235426205  1.0771469386 -1.5274113371
C  -1.4601270366 -1.2291320218 -1.4367582847
H  -1.9617923528 -2.1170271168 -1.3850763149
C  -0.0631936409 -1.2266000668 -1.4112713949
H   0.4943383462 -2.1184983716 -1.3393272034
BR -0.6501183997  0.0169710494  2.3240479889
15
Step 4  E=-3010.1807465206  phi=66.747  theta=61.795
C  -1.4744109182  1.1778284729 -1.6101791333
C  -0.0747039816  1.1951316301 -1.5863992557
C   0.5947009126 -0.0079327213 -1.4876958398
C  -2.1550288934 -0.0327374651 -1.5364887312
H  -2.0192556930  2.1088227426 -1.6901002641
H   0.4761000370  2.1093329031 -1.6451437516
H  -3.2051643363 -0.0329527586 -1.5562378789
N   2.0741277575  0.0029012829 -1.4612404322
O   2.6375208739 -1.0668603319 -1.3747291647
O   2.6226437482  1.0761990748 -1.5276680788
C  -1.4628097323 -1.2288359858 -1.4359501765
H  -1.9513496732 -2.0979298627 -1.3867849280
C  -0.0615794692 -1.2266276980 -1.4105561182
H   0.4908104860 -2.1095116459 -1.3407777605
BR -0.6501183997  0.0169710494  2.3240479889
15
Step 5  E=-3010.1774313057  phi=66.751  theta=61.778
C  -1.4765389158  1.1774242967 -1.6100441040
C  -0.0720832966  1.1942585884 -1.5864306529
C   0.5950457517 -0.0071938169 -1.4877378279
C  -2.1553187921 -0.0340512472 -1.5363277694
H  -2.0206803907  2.1081515690 -1.6913557794
H   0.4761180581  2.1063013934 -1.6466415167
H  -3.1972587757 -0.0311128115 -1.5563726271
N   2.0757181719  0.0035441468 -1.4612623147
O   2.6370981124 -1.0664255013 -1.3744672792
O   2.6215854435  1.0750970450 -1.5279851278
C  -1.4655446556 -1.2277472875 -1.4350065137
H  -1.9436097251 -2.0833108191 -1.3883592788
C  -0.0598916056 -1.2263866671 -1.4097001296
H   0.4884018540 -2.1017875107 -1.3422693181
BR -0.6501183997  0.0169710494  2.3240479889
15
Step 6  E=-3010.1756180661  phi=66.756  theta=61.757
C  -1.4788580705  1.1769301092 -1.6098830314
C  -0.0692226896  1.1931800937 -1.5864716976
C   0.5954920434 -0.0063506680 -1.4877804207
C  -2.1553873050 -0.0355860691 -1.5361305575
H  -2.0224727280  2.1075465808 -1.6928354788
H   0.4768581547  2.1038960801 -1.6484532872
H  -3.1919367742 -0.0291612396 -1.5566356653
N   2.0775096050  0.0042510039 -1.4612883729
O   2.6366213091 -1.0659421087 -1.3741552319
O   2.6203913843  1.0738745554 -1.5283643931
C  -1.4681140566 -1.2256206927 -1.4339421460
H  -1.9404019788 -2.0763776395 -1.3896118616
C  -0.0582412363 -1.2257714760 -1.4087099733
H   0.4878066661 -2.0965438466 -1.3436959433
BR -0.6501183997  0.0169710494  2.3240479889
15
Step 7  E=-3010.1763858696  phi=66.763  theta=61.734
C  -1.4812934819  1.1763414702 -1.6096966771
C  -0.0662118274  1.1919057843 -1.5865252085
C   0.5960567617 -0.0054272857 -1.4878203671
C  -2.1551974115 -0.0373004959 -1.5358962855
H  -2.0246419488  2.1070300900 -1.6945320349
H   0.4784726902  2.1023718865 -1.6505846121
H  -3.1900795716 -0.0271857017 -1.5570543268
N   2.0794612166  0.0049933438 -1.4613182844
O   2.6361014493 -1.0654228504 -1.3737919351
O   2.6190888193  1.0725704880 -1.5288080664
C  -1.4703821995 -1.2223812398 -1.4327630685
H  -1.9425462796 -2.0785612286 -1.3904505975
C  -0.0567120208 -1.2247123834 -1.4075894370
H   0.4894450832 -2.0945591953 -1.3449851079
BR -0.6501183997  0.0169710494  2.3240479889
15
Step 8  E=-3010.1792402944  phi=66.772  theta=61.707
C  -1.4837708905  1.1756575454 -1.6094865556
C  -0.0631355402  1.1904636643 -1.5865951533
C   0.5967583489 -0.0044508324 -1.4878539736
C  -2.1547696210 -0.0391330730 -1.5356258003
H  -2.0271740825  2.1065909735 -1.6964341276
H   0.4810171658  2.1018283948 -1.6530311810
H  -3.1919713484 -0.0252760702 -1.5576421115
N   2.0815284464  0.0057388479 -1.4613515297
O   2.6355509016 -1.0648811846 -1.3733762069
O   2.6177079705  1.0712279325 -1.5293185825
C  -1.4723242556 -1.2181758730 -1.4314647402
H  -1.9495397795 -2.0889257397 -1.3908978941
C  -0.0553486424 -1.2231921191 -1.4063387069
H   0.4933495911 -2.0959851160 -1.3461087272
BR -0.6501183997  0.0169710494  2.3240479889
15
Step 9  E=-3010.1825930145  phi=66.783  theta=61.677
C  -1.4862187843  1.1748821612 -1.6092548843
C  -0.0600702722  1.1889003558 -1.5866867677
C   0.5976161137 -0.0034496943 -1.4878770792
C  -2.1541860919 -0.0410052769 -1.5353219557
H  -2.0300297808  2.1061833644 -1.6985261303
H   0.4844386360  2.1021919281 -1.6557767452
H  -3.1972396626 -0.0235252904 -1.5583959299
N   2.0836641314  0.0064526102 -1.4613874382
O   2.6349832508 -1.0643311809 -1.3729067787
O   2.6162812686  1.0698929632 -1.5298985707
C  -1.4740077911 -1.2133383393 -1.4300348698
H  -1.9597860794 -2.1045499807 -1.3910566456
C  -0.0541552026 -1.2212504960 -1.4049546225
H   0.4991433665 -2.1003094811 -1.3470812283
BR -0.6501183997  0.0169710494  2.3240479889
15
Step 10  E=-3010.1850411904  phi=66.796  theta=61.643
C  -1.4885701752  1.1740238693 -1.6090045008
C  -0.0570824505  1.1872783916 -1.5868065141
C   0.5986492277 -0.0024520803 -1.4878850685
C  -2.1535805603 -0.0428273317 -1.5349896134
H  -2.0331454184  2.1057310136 -1.7007881734
H   0.4885826420  2.1032290210 -1.6587929105
H  -3.2049525648 -0.0220293025 -1.5592970959
N   2.0858197571  0.0070986336 -1.4614252588
O   2.6344130742 -1.0637874073 -1.3723823051
O   2.6148424451  1.0686131950 -1.5305507920
C  -1.4755424943 -1.2082927814 -1.4284583761
H  -1.9711878920 -2.1215886624 -1.3910506025
C  -0.0531037449 -1.2189750783 -1.4034319131
H   0.5061213171 -2.1064869832 -1.3479458182
BR -0.6501183997  0.0169710494  2.3240479889
15
Step 11  E=-3010.1860999355  phi=66.812  theta=61.606
C  -1.4907641380  1.1730951431 -1.6087387382
C  -0.0542285012  1.1856709043 -1.5869618232
C   0.5998754184 -0.0014850899 -1.4878729228
C  -2.1531171801 -0.0445055334 -1.5346352152
H  -2.0364370819  2.1051367464 -1.7031966872
H   0.4932165489  2.1045879674 -1.6620409674
H  -3.2138329839 -0.0208833980 -1.5603154569
N   2.0879467997  0.0076415511 -1.4614642464
O   2.6338556677 -1.0632648266 -1.3718013768
O   2.6134255238  1.0674361586 -1.5312780616
C  -1.4770313296 -1.2034556321 -1.4267214429
H  -1.9817246601 -2.1363338406 -1.3909775440
C  -0.0521489803 -1.2164819534 -1.4017649284
H   0.5133997779 -2.1131804386 -1.3487551487
BR -0.6501183997  0.0169710494  2.3240479889
15
Step 12  E=-3010.1860837580  phi=66.831  theta=61.566
C  -1.4927470954  1.1721109077 -1.6084613239
C  -0.0515559743  1.1841546462 -1.5871606521
C   0.6013094944 -0.0005740694 -1.4878353279
C  -2.1529648836 -0.0459496035 -1.5342659962
H  -2.0398067448  2.1042956810 -1.7057254021
H   0.4980635300  2.1058587182 -1.6654754379
H  -3.2225140285 -0.0201748755 -1.5614152177
N   2.0899981246  0.0080485141 -1.4615037578
O   2.6333267373 -1.0627786902 -1.3711625365
O   2.6120637482  1.0664075409 -1.5320831569
C  -1.4785422194 -1.1991719181 -1.4248134919
H  -1.9898014450 -2.1458731801 -1.3908895988
C  -0.0512435434 -1.2138936030 -1.3999491729
H   0.5200803364 -2.1190247048 -1.3495536169
BR -0.6501183997  0.0169710494  2.3240479889
15
Step 13  E=-3010.1856166885  phi=66.853  theta=61.522
C  -1.4944737654  1.1710867855 -1.6081763046
C  -0.0491051392  1.1828025031 -1.5874109278
C   0.6029618392  0.0002579742 -1.4877668311
C  -2.1532736160 -0.0470792630 -1.5338890020
H  -2.0431496802  2.1031102310 -1.7083467176
H   0.5028399812  2.1066385806 -1.6690486978
H  -3.2297664195 -0.0199741541 -1.5625609427
N   2.0919294018  0.0082911427 -1.4615433517
O   2.6328420792 -1.0623444012 -1.3704642958
O   2.6107884859  1.0655693562 -1.5329687142
C  -1.4800990951 -1.1956859699 -1.4227276785
H  -1.9943834717 -2.1483560790 -1.3907931475
C  -0.0503499195 -1.2113198314 -1.3979822768
H   0.5253850620 -2.1228450067 -1.3503656156
BR -0.6501183997  0.0169710494  2.3240479889
15
Step 14  E=-3010.1851810860  phi=66.879  theta=61.473
C  -1.4959077328  1.1700374057 -1.6078879788
C  -0.0469105273  1.1816765840 -1.5877199553
C   0.6048370221  0.0009910280 -1.4876620148
C  -2.1541561366 -0.0478297299 -1.5335100891
H  -2.0463620932  2.1015047259 -1.7110332788
H   0.5072900056  2.1065925008 -1.6727158868
H  -3.2346633202 -0.0203270177 -1.5637227810
N   2.0937004878  0.0083473932 -1.4615828892
O   2.6324172631 -1.0619773289 -1.3697051561
O   2.6096281627  1.0649581427 -1.5339371198
C  -1.4816830151 -1.1931312589 -1.4204608374
H  -1.9950191154 -2.1430491849 -1.3906562083
C  -0.0494478485 -1.2088444614 -1.3958643905
H   0.5287467659 -2.1238038047 -1.3511902294
BR -0.6501183997  0.0169710494  2.3240479889
15
Step 15  E=-3010.1848535862  phi=66.908  theta=61.421
C  -1.4970216772  1.1689750834 -1.6076008191
C  -0.0450021063  1.1808226660 -1.5880938690
C   0.6069326740  0.0016088368 -1.4875156685
C  -2.1556762922 -0.0481559977 -1.5331330521
H  -2.0493480635  2.0994377155 -1.7137595568
H   0.5112127826  2.1055003127 -1.6764394990
H  -3.2366799499 -0.0212496131 -1.5648805719
N   2.0952767227  0.0082031739 -1.4616226202
O   2.6320673179 -1.0616925564 -1.3688836331
O   2.6086072839  1.0646033005 -1.5349904008
C  -1.4832354325 -1.1915263380 -1.4180133867
H  -1.9918353509 -2.1303343684 -1.3904159557
C  -0.0485379238 -1.2065177510 -1.3935981664
H   0.5298583366 -2.1214824886 -1.3520008697
BR -0.6501183997  0.0169710494  2.3240479889
15
Step 16  E=-3010.1842689575  phi=66.940  theta=61.364
C  -1.4977973379  1.1679090256 -1.6073193992
C  -0.0434059659  1.1802664565 -1.5885371894
C   0.6092387479  0.0020997295 -1.4873229423
C  -2.1578431704 -0.0480355719 -1.5327589730
H  -2.0520250142  2.0969104151 -1.7165032536
H   0.5144807233  2.1032869825 -1.6801931437
H  -3.2357405254 -0.0227266558 -1.5660268435
N   2.0966300802  0.0078535474 -1.4616632513
O   2.6318064181 -1.0615045566 -1.3679982877
O   2.6077456068  1.0645256911 -1.5361301258
C  -1.4846600715 -1.1907716714 -1.4153892809
H  -1.9855408977 -2.1117134948 -1.3899840978
C  -0.0476425230 -1.2043532561 -1.3911884823
H   0.5286923879 -2.1159152022 -1.3527478984
BR -0.6501183997  0.0169710494  2.3240479889
15
Step 17  E=-3010.1828580455  phi=66.976  theta=61.303
C  -1.4982253838  1.1668451034 -1.6070483360
C  -0.0421444595  1.1800119107 -1.5890525041
C   0.6117372156  0.0024572723 -1.4870794854
C  -2.1606103463 -0.0474691175 -1.5323858374
H  -2.0543271605  2.0939703113 -1.7192463554
H   0.5170477805  2.1000345045 -1.6839641386
H  -3.2322241906 -0.0247125975 -1.5671687270
N   2.0977401134  0.0073033673 -1.4617059807
O   2.6316475811 -1.0614267827 -1.3670477671
O   2.6070575261  1.0647366186 -1.5373573220
C  -1.4858243956 -1.1906503369 -1.4125958717
H  -1.9774228044 -2.0897919245 -1.3892513738
C  -0.0468047218 -1.2023279383 -1.3886420315
H   0.5254993621 -2.1075869773 -1.3533629123
BR -0.6501183997  0.0169710494  2.3240479889
15
Step 18  E=-3010.1803590267  phi=67.014  theta=61.237
C  -1.4983052263  1.1657861806 -1.6067922959
C  -0.0412358066  1.1800416585 -1.5896403220
C   0.6144022375  0.0026807419 -1.4867815841
C  -2.1638799517 -0.0464785316 -1.5320084401
H  -2.0562066627  2.0907095831 -1.7219757290
H   0.5189478122  2.0959752936 -1.6877546276
H  -3.2269320219 -0.0271353564 -1.5683285193
N   2.0985946541  0.0065672799 -1.4617524947
O   2.6316023854 -1.0614711837 -1.3660308523
O   2.6065517141  1.0652372772 -1.5386724161
C  -1.4865664467 -1.1908435821 -1.4096433822
H  -1.9692713831 -2.0681196555 -1.3880944855
C  -0.0460850240 -1.2003852040 -1.3859667483
H   0.5207845077 -2.0973961820 -1.3537642049
BR -0.6501183997  0.0169710494  2.3240479889
15
Step 19  E=-3010.1773549025  phi=67.055  theta=61.166
C  -1.4980449176  1.1647328254 -1.6065560998
C  -0.0406931300  1.1803195426 -1.5902990995
C   0.6172007698  0.0027751990 -1.4864263151
C  -2.1675119793 -0.0451021253 -1.5316186050
H  -2.0576323573  2.0872584106 -1.7246831555
H   0.5202829760  2.0914673322 -1.6915809078
H  -3.2210060949 -0.0299020744 -1.5695422087
N   2.0991902158  0.0056690549 -1.4618049199
O   2.6316807115 -1.0616476541 -1.3649465161
O   2.6062310437  1.0660187138 -1.5400752042
C  -1.4867164069 -1.1909774537 -1.4065436834
H  -1.9631289541 -2.0507025403 -1.3863894490
C  -0.0455549006 -1.1984414360 -1.3831710648
H   0.5152563595 -2.0865690981 -1.3538632428
BR -0.6501183997  0.0169710494  2.3240479889
15
Step 20  E=-3010.1752341800  phi=67.097  theta=61.091
C  -1.4974610680  1.1636843419 -1.6063448996
C  -0.0405229049  1.1807950972 -1.5910254666
C   0.6200935462  0.0027512187 -1.4860117122
C  -2.1713395257 -0.0433877723 -1.5312057376
H  -2.0585863465  2.0837739832 -1.7273648248
H   0.5212024935  2.0869523052 -1.6954707317
H  -3.2157870463 -0.0329060547 -1.5708550755
N   2.0995320918  0.0046403062 -1.4618657328
O   2.6318905032 -1.0619634553 -1.3637939856
O   2.6060927908  1.0670623086 -1.5415648532
C  -1.4861392307 -1.1907093633 -1.4033083570
H  -1.9607917715 -2.0410696574 -1.3840324935
C  -0.0452863351 -1.1963973759 -1.3802630055
H   0.5097364448 -2.0765102259 -1.3535721133
BR -0.6501183997  0.0169710494  2.3240479889
15
Step 21  E=-3010.1752272436  phi=67.140  theta=61.011
C  -1.4965786750  1.1626400068 -1.6061643926
C  -0.0407229757  1.1814095873 -1.5918146805
C   0.6230363754  0.0026243469 -1.4855368998
C  -2.1751899337 -0.0413858685 -1.5307577655
H  -2.0590589895  2.0804263601 -1.7300202827
H   0.5218730576  2.0828996504 -1.6994585272
H  -3.2126053200 -0.0360335801 -1.5723137533
N   2.0996341468  0.0035187037 -1.4619376301
O   2.6322375529 -1.0624226428 -1.3625728106
O   2.6061290836  1.0683407208 -1.5431399356
C  -1.4847887138 -1.1898333582 -1.3999465153
H  -1.9631769825 -2.0411212744 -1.3809625819
C  -0.0453376891 -1.1941552761 -1.3772492390
H   0.5050268644 -2.0685833242 -1.3528113224
BR -0.6501183997  0.0169710494  2.3240479889
15
Step 22  E=-3010.1773520651  phi=67.183  theta=60.926
C  -1.4954306595  1.1616004427 -1.6060209568
C  -0.0412804356  1.1821029008 -1.5926612945
C   0.6259816460  0.0024144348 -1.4850021343
C  -2.1789095832 -0.0391445853 -1.5302624346
H  -2.0590431735  2.0773827418 -1.7326509642
H   0.5224440114  2.0797425401 -1.7035788767
H  -3.2125280755 -0.0391689202 -1.5739552950
N   2.0995183223  0.0023458331 -1.4620233721
O   2.6327253253 -1.0630255390 -1.3612829268
O   2.6063275521  1.0698192075 -1.5447984914
C  -1.4827427049 -1.1883474540 -1.3964634094
H  -1.9699042592 -2.0503941980 -1.3771733425
C  -0.0457385310 -1.1916404217 -1.3741343290
H   0.5017521407 -2.0638500632 -1.3515166888
BR -0.6501183997  0.0169710494  2.3240479889
15
Step 23  E=-3010.1805030549  phi=67.226  theta=60.838
C  -1.4940569496  1.1605690223 -1.6059216137
C  -0.0421698532  1.1828202967 -1.5935599707
C   0.6288799351  0.0021449328 -1.4844086996
C  -2.1823870283 -0.0367088497 -1.5297087611
H  -2.0585290087  2.0747921518 -1.7352585007
H   0.5230127960  2.0778153916 -1.7078591623
H  -3.2161206067 -0.0421960028 -1.5757954496
N   2.0992138881  0.0011648893 -1.4621256113
O   2.6333548200 -1.0637683073 -1.3599247131
O   2.6066721147  1.0714571978 -1.5465381147
C  -1.4801922109 -1.1864359780 -1.3928605162
H  -1.9794058681 -2.0662826953 -1.3727066967
C  -0.0464780935 -1.1888218130 -1.3709204346
H   0.5002174275 -2.0628340807 -1.3496437057
BR -0.6501183997  0.0169710494  2.3240479889
15
Step 24  E=-3010.1834425030  phi=67.268  theta=60.745
C  -1.4925032151  1.1595529600 -1.6058738441
C  -0.0433524203  1.1835179149 -1.5945062900
C   0.6316816042  0.0018420332 -1.4837586840
C  -2.1855675047 -0.0341222148 -1.5290882799
H  -2.0574999234  2.0727724843 -1.7378430887
H   0.5235976821  2.0773044642 -1.7123127534
H  -3.2233016890 -0.0449967705 -1.5778196605
N   2.0987564531  0.0000183976 -1.4622467229
O   2.6341244763 -1.0646426730 -1.3584990333
O   2.6071438526  1.0732100046 -1.5483560556
C  -1.4773911734 -1.1843826218 -1.3891367022
H  -1.9894845348 -2.0850388032 -1.3676334985
C  -0.0475017966 -1.1857243265 -1.3676075105
H   0.5003362362 -2.0653961129 -1.3471682750
BR -0.6501183997  0.0169710494  2.3240479889
15
Step 25  E=-3010.1855092676  phi=67.309  theta=60.648
C  -1.4908194254  1.1585638126 -1.6058853340
C  -0.0447764912  1.1841661057 -1.5954973817
C   0.6343382890  0.0015335517 -1.4830546982
C  -2.1884537175 -0.0314295371 -1.5283956933
H  -2.0559309619  2.0714017431 -1.7404022123
H   0.5241245117  2.0782221146 -1.7169342975
H  -3.2333509818 -0.0474483158 -1.5799801233
N   2.0981867661 -0.0010538400 -1.4623886525
O   2.6350301259 -1.0656358392 -1.3570072609
O   2.6077219175  1.0750305603 -1.5502493305
C  -1.4745994254 -1.1824737870 -1.3852895699
H  -1.9979420810 -2.1028750765 -1.3620333538
C  -0.0487176877 -1.1824268267 -1.3641938570
H   0.5016600085 -2.0707733327 -1.3440840616
BR -0.6501183997  0.0169710494  2.3240479889
15
Step 26  E=-3010.1866548992  phi=67.349  theta=60.548
C  -1.4890584009  1.1576171943 -1.6059637306
C  -0.0463797501  1.1847500944 -1.5965322215
C   0.6368042285  0.0012474906 -1.4822996132
C  -2.1910930786 -0.0286785321 -1.5276287324
H  -2.0537897520  2.0707145699 -1.7429300065
H   0.5244313325  2.0804104021 -1.7216983189
H  -3.2450661982 -0.0494221201 -1.5822001935
N   2.0975493418 -0.0020164457 -1.4625527917
O   2.6360650078 -1.0667306108 -1.3554512840
O   2.6083844284  1.0768710894 -1.5522148333
C  -1.4720431317 -1.1809347084 -1.3813164252
H  -2.0030004965 -2.1166919446 -1.3559810634
C  -0.0500106468 -1.1790468377 -1.3606767822
H   0.5034968318 -2.0777652004 -1.3403978730
BR -0.6501183997  0.0169710494  2.3240479889
15
Step 27  E=-3010.1871612644  phi=67.386  theta=60.444
C  -1.4872743358  1.1567317691 -1.6061164260
C  -0.0480928646  1.1852680759 -1.5976115525
C   0.6390374224  0.0010105184 -1.4814963561
C  -2.1935568225 -0.0259196288 -1.5267873634
H  -2.0510402099  2.0707042507 -1.7454173887
H   0.5242903171  2.0835726289 -1.7265615124
H  -3.2570088392 -0.0507878104 -1.5843846664
N   2.0968909722 -0.0028397175 -1.4627398933
O   2.6372198584 -1.0679057344 -1.3538334868
O   2.6091093045  1.0786846338 -1.5542494436
C  -1.4698957600 -1.1799024810 -1.3772148695
H  -2.0034845804 -2.1243889506 -1.3495395737
C  -0.0512596796 -1.1757180705 -1.3570531780
H   0.5050706829 -2.0849907091 -1.3361247560
BR -0.6501183997  0.0169710494  2.3240479889
15
Step 28  E=-3010.1873438652  phi=67.422  theta=60.336
C  -1.4855212041  1.1559277442 -1.6063503702
C  -0.0498441601  1.1857274210 -1.5987374964
C   0.6410006216  0.0008466079 -1.4806477702
C  -2.1959181892 -0.0232044713 -1.5258726918
H  -2.0476485329  2.0713293919 -1.7478529281
H   0.5234420029  2.0873248297 -1.7314681756
H  -3.2677585486 -0.0514213339 -1.5864326827
N   2.0962591739 -0.0035004292 -1.4629500233
O   2.6384830931 -1.0691364251 -1.3521567104
O   2.6098750092  1.0804263864 -1.5563501266
C  -1.4682714426 -1.1794208051 -1.3729832045
H  -1.9988626449 -2.1249341595 -1.3427559573
C  -0.0523537314 -1.1725682795 -1.3533199399
H   0.5056693345 -2.0911347398 -1.3312837681
BR -0.6501183997  0.0169710494  2.3240479889
15
Step 29  E=-3010.1873308201  phi=67.457  theta=60.225
C  -1.4838509883  1.1552251807 -1.6066718623
C  -0.0515645744  1.1861399379 -1.5999129587
C   0.6426622088  0.0007761227 -1.4797565271
C  -2.1982348995 -0.0205839658 -1.5248859028
H  -2.0435906958  2.0725239083 -1.7502243017
H   0.5216346748  2.0912560281 -1.7363575643
H  -3.2761190912 -0.0512154417 -1.5882501183
N   2.0957006416 -0.0039821864 -1.4631825529
O   2.6398410819 -1.0703950542 -1.3504241936
O   2.6106611865  1.0820547959 -1.5585140233
C  -1.4672227033 -1.1794415881 -1.3686209141
H  -1.9892400266 -2.1183580805 -1.3356567770
C  -0.0532035506 -1.1697022457 -1.3494742646
H   0.5047515313 -2.0951347259 -1.3258946248
BR -0.6501183997  0.0169710494  2.3240479889
15
Step 30  E=-3010.1869574555  phi=67.489  theta=60.110
C  -1.4823117836  1.1546423897 -1.6070863330
C  -0.0531922267  1.1865171447 -1.6011409727
C   0.6439970176  0.0008154311 -1.4788250849
C  -2.2005378094 -0.0181064433 -1.5238274364
H  -2.0388603832  2.0742085725 -1.7525200776
H   0.5186618724  2.0949865298 -1.7411717607
H  -3.2812561555 -0.0500899064 -1.5897596088
N   2.0952597576 -0.0042754113 -1.4634361810
O   2.6412785119 -1.0716519448 -1.3486394962
O   2.6114491993  1.0835324416 -1.5607385285
C  -1.4667387398 -1.1798259720 -1.3641293692
H  -1.9753520218 -2.1057546738 -1.3282405609
C  -0.0537491302 -1.1671910424 -1.3455138619
H   0.5020093220 -2.0962980908 -1.3199748804
BR -0.6501183997  0.0169710494  2.3240479889
15
Step 31  E=-3010.1858523222  phi=67.521  theta=59.992
C  -1.4809459385  1.1541945890 -1.6075981533
C  -0.0546760857  1.1868662729 -1.6024240831
C   0.6449871074  0.0009770113 -1.4778556951
C  -2.2028251849 -0.0158161170 -1.5226964391
H  -2.0334761875  2.0763023174 -1.7547315237
H   0.5143927995  2.0982163716 -1.7458628628
H  -3.2827733278 -0.0479996427 -1.5909076840
N   2.0949772051 -0.0043770466 -1.4637089796
O   2.6427788232 -1.0728762264 -1.3468064120
O   2.6122225794  1.0848266941 -1.5630213566
C  -1.4667450295 -1.1803453069 -1.3595127890
H  -1.9585515015 -2.0892836671 -1.3204669796
C  -0.0539632612 -1.1650664907 -1.3414371044
H   0.4973951607 -2.0943631468 -1.3135372276
BR -0.6501183997  0.0169710494  2.3240479889
15
Step 32  E=-3010.1837739010  phi=67.551  theta=59.870
C  -1.4797884402  1.1538929326 -1.6082105141
C  -0.0559784417  1.1871874418 -1.6037638418
C   0.6456224659  0.0012698958 -1.4768504700
C  -2.2050611879 -0.0137516162 -1.5214904460
H  -2.0274870387  2.0787317816 -1.7568541678
H   0.5087927519  2.1007595897 -1.7503986727
H  -3.2807407986 -0.0449397367 -1.5916691346
N   2.0948887224 -0.0042900595 -1.4639984547
O   2.6443246966 -1.0740366996 -1.3449288759
O   2.6129673932  1.0859101902 -1.5653605975
C  -1.4671092242 -1.1806905421 -1.3547792160
H  -1.9407374765 -2.0720797859 -1.3122461261
C  -0.0538517942 -1.1633191864 -1.3372431001
H   0.4911246529 -2.0895189267 -1.3065866303
BR -0.6501183997  0.0169710494  2.3240479889
15
Step 33  E=-3010.1810761343  phi=67.581  theta=59.743
C  -1.4788657571  1.1537439431 -1.6089254317
C  -0.0570761568  1.1874722651 -1.6051604547
C   0.6459015842  0.0017001460 -1.4758115113
C  -2.2071775555 -0.0119439870 -1.5202052569
H  -2.0209750451  2.0814379637 -1.7588888978
H   0.5019324921  2.1025625940 -1.7547664402
H  -3.2756862343 -0.0409468640 -1.5920486665
N   2.0950240406 -0.0040228582 -1.4643016115
O   2.6458985679 -1.0751026545 -1.3430108706
O   2.6136725152  1.0867611679 -1.5677547612
C  -1.4676612732 -1.1805054195 -1.3499406470
H  -1.9241332985 -2.0578951991 -1.3034378587
C  -0.0534507613 -1.1618991439 -1.3329316806
H   0.4836600137 -2.0823903151 -1.2991172947
BR -0.6501183997  0.0169710494  2.3240479889
15
Step 34  E=-3010.1788382127  phi=67.610  theta=59.614
C  -1.4781952210  1.1537494034 -1.6097438841
C  -0.0579606710  1.1877039657 -1.6066126092
C   0.6458318210  0.0022712648 -1.4747410918
C  -2.2090784801 -0.0104139476 -1.5188350366
H  -2.0140552554  2.0843793546 -1.7608424653
H   0.4939864735  2.1037061154 -1.7589743263
H  -3.2685462112 -0.0360968062 -1.5920793929
N   2.0954060322 -0.0035886721 -1.4646150185
O   2.6474831510 -1.0760446157 -1.3410563374
O   2.6143298279  1.0873636829 -1.5702028160
C  -1.4682334364 -1.1794571809 -1.3450109887
H  -1.9108444429 -2.0503151405 -1.2938771387
C  -0.0528203700 -1.1607195560 -1.3285032536
H   0.4756714875 -2.0739819057 -1.2911101513
BR -0.6501183997  0.0169710494  2.3240479889
15
Step 35  E=-3010.1782035692  phi=67.640  theta=59.480
C  -1.4777848914  1.1539067689 -1.6106660493
C  -0.0586369014  1.1878590161 -1.6081175454
C   0.6454295152  0.0029845135 -1.4736418353
C  -2.2106497069 -0.0091688047 -1.5173727860
H  -2.0068722367  2.0875312680 -1.7627273072
H   0.4852202168  2.1043905902 -1.7630503354
H  -3.2605669194 -0.0304981272 -1.5918172181
N   2.0960501062 -0.0030049406 -1.4649348647
O   2.6490619534 -1.0768349897 -1.3390690935
O   2.6149343662  1.0877077169 -1.5727042168
C  -1.4687127057 -1.1773361241 -1.3400009258
H  -1.9022725590 -2.0516384101 -1.2834348628
C  -0.0520360288 -1.1596655133 -1.3239584868
H   0.4679685245 -2.0655645773 -1.2825322942
BR -0.6501183997  0.0169710494  2.3240479889
15
Step 36  E=-3010.1793991880  phi=67.671  theta=59.344
C  -1.4776337280  1.1542101558 -1.6116915239
C  -0.0591211321  1.1879101728 -1.6096714147
C   0.6447198202  0.0038393223 -1.4725168103
C  -2.2117730599 -0.0082004935 -1.5158113536
H  -1.9995938670  2.0908816029 -1.7645606877
H   0.4759675095  2.1049053290 -1.7670385216
H  -3.2531416109 -0.0242828769 -1.5913301655
N   2.0969638711 -0.0022927188 -1.4652570093
O   2.6506197567 -1.0774486218 -1.3370527576
O   2.6154844022  1.0877891841 -1.5752589270
C  -1.4690796646 -1.1741373307 -1.3349113537
H  -1.8986778099 -2.0619510804 -1.2720941378
C  -0.0511771675 -1.1586097793 -1.3192977691
H   0.4613936268 -2.0584911271 -1.2733406287
BR -0.6501183997  0.0169710494  2.3240479889
15
Step 37  E=-3010.1816222380  phi=67.703  theta=59.204
C  -1.4777319092  1.1546518270 -1.6128194387
C  -0.0594381465  1.1878306750 -1.6112699545
C   0.6437362550  0.0048338726 -1.4713694667
C  -2.2123462521 -0.0074860640 -1.5141450235
H  -1.9924030202  2.0944235956 -1.7663632174
H   0.4665991583  2.1055829533 -1.7709924515
H  -3.2475866341 -0.0175963512 -1.5906826990
N   2.0981470503 -0.0014761013 -1.4655770239
O   2.6521430229 -1.0778632726 -1.3350106830
O   2.6159814702  1.0876098473 -1.5778674368
C  -1.4694073213 -1.1700682928 -1.3297294923
H  -1.8991933942 -2.0790378722 -1.2599928126
C  -0.0503151685 -1.1574354911 -1.3145203819
H   0.4566837931 -2.0539492555 -1.2634916886
BR -0.6501183997  0.0169710494  2.3240479889
15
Step 38  E=-3010.1838920865  phi=67.738  theta=59.060
C  -1.4780613221  1.1552239105 -1.6140484465
C  -0.0596178634  1.1875991843 -1.6129094091
C   0.6425199425  0.0059657875 -1.4702034250
C  -2.2123049511 -0.0069907641 -1.5123714092
H  -1.9854880647  2.0981468281 -1.7681569370
H   0.4574864231  2.1067432677 -1.7749664366
H  -3.2448891880 -0.0105889503 -1.5899173191
N   2.0995916313 -0.0005816406 -1.4658902360
O   2.6536202251 -1.0780600208 -1.3329458946
O   2.6164303019  1.0871771612 -1.5805307808
C  -1.4698218900 -1.1654761039 -1.3244305241
H  -1.9022724698 -2.0992036622 -1.2473999646
C  -0.0495024751 -1.1560613345 -1.3096233557
H   0.4543267143 -2.0527001159 -1.2529576250
BR -0.6501183997  0.0169710494  2.3240479889
15
Step 39  E=-3010.1857342303  phi=67.775  theta=58.914
C  -1.4785964051  1.1559199353 -1.6153766816
C  -0.0596919434  1.1872048716 -1.6145875577
C   0.6411185194  0.0072325341 -1.4690221804
C  -2.2116410262 -0.0066721718 -1.5104930898
H  -1.9790330712  2.1020281020 -1.7699632574
H   0.4489637390  2.1086341238 -1.7790056938
H  -3.2454938397 -0.0034127537 -1.5890384029
N   2.1012822132  0.0003622597 -1.4661917769
O   2.6550421014 -1.0780235994 -1.3308610308
O   2.6168386887  1.0865040463 -1.5832505514
C  -1.4704537572 -1.1607454565 -1.3189831528
H  -1.9062452874 -2.1184186835 -1.2346463437
C  -0.0487655960 -1.1544609019 -1.3046002448
H   0.4544577424 -2.0548856780 -1.2417444846
BR -0.6501183997  0.0169710494  2.3240479889
15
Step 40  E=-3010.1871519754  phi=67.816  theta=58.764
C  -1.4793055308  1.1567358162 -1.6168017774
C  -0.0596907927  1.1866517732 -1.6163046302
C   0.6395846708  0.0086311773 -1.4678287987
C  -2.2104101591 -0.0064837016 -1.5085183371
H  -1.9732086660  2.1060239492 -1.7718010904
H   0.4412971237  2.1113798245 -1.7831372059
H  -3.2492033937  0.0037771333 -1.5880043808
N   2.1031965286  0.0013260206 -1.4664766436
O   2.6564018127 -1.0777426853 -1.3287582874
O   2.6172173118  1.0856085701 -1.5860289019
C  -1.4714029274 -1.1562196845 -1.3133554898
H  -1.9097105862 -2.1331938744 -1.2220528676
C  -0.0481045597 -1.1526684159 -1.2994403113
H   0.4568392166 -2.0599830664 -1.2299057973