15
Step 0  E=-3010.2018190105  phi=145.567  theta=71.339
C  -1.4692733657  1.1787287626 -1.6104907482
C  -0.0811714080  1.1968111133 -1.5863131467
C   0.5939992059 -0.0095516576 -1.4875826857
C  -2.1534619802 -0.0297791051 -1.5368544856
H  -2.0151686003  2.1092325024 -1.6871589449
H   0.4789593628  2.1207322459 -1.6419459534
H  -3.2353043724 -0.0380397503 -1.5562782287
N   2.0706584884  0.0010716098 -1.4611650093
O   2.6382832869 -1.0677273172 -1.3753185662
O   2.6250660175  1.0788989791 -1.5269688088
C  -1.4546080952 -1.2280909301 -1.4382464935
H  -1.9905258789 -2.1685720085 -1.3810617157
C  -0.0663093382 -1.2260036065 -1.4125019011
H   0.5041673949 -2.1402494986 -1.3362744502
BR -0.6501183997  0.0169710494  2.3240479889
15
Step 1  E=-3010.2021991441  phi=145.597  theta=71.338
C  -1.4702781398  1.1787992248 -1.6105325901
C  -0.0804329460  1.1966352414 -1.5862398249
C   0.5938858948 -0.0092882570 -1.4875924278
C  -2.1539062189 -0.0296630990 -1.5369384037
H  -2.0114201145  2.1038124185 -1.6868988399
H   0.4795565550  2.1210462905 -1.6420839377
H  -3.2283164672 -0.0385986482 -1.5562498098
N   2.0718725763  0.0003899918 -1.4610817650
O   2.6374917483 -1.0670768654 -1.3753250663
O   2.6246236525  1.0787954826 -1.5269927702
C  -1.4556031563 -1.2278700814 -1.4381242035
H  -1.9905418748 -2.1686823361 -1.3812545453
C  -0.0652488601 -1.2260652969 -1.4122658590
H   0.5028205014 -2.1370960270 -1.3366232637
BR -0.6501183997  0.0169710494  2.3240479889
15
Step 2  E=-3010.2024357834  phi=145.647  theta=71.337
C  -1.4718827365  1.1788424505 -1.6105963196
C  -0.0792322240  1.1963540922 -1.5861190634
C   0.5937112236 -0.0088688526 -1.4876071393
C  -2.1545623988 -0.0294615334 -1.5370771612
H  -2.0057328415  2.0956579827 -1.6865331155
H   0.4805313380  2.1215241696 -1.6423099394
H  -3.2177616275 -0.0395092585 -1.5562210185
N   2.0738631565 -0.0007207440 -1.4609449851
O   2.6361908061 -1.0660149978 -1.3753342839
O   2.6238948537  1.0786254675 -1.5270327854
C  -1.4572228212 -1.2275067192 -1.4379186837
H  -1.9906017576 -2.1688836144 -1.3815720247
C  -0.0635381494 -1.2261218773 -1.4118779533
H   0.5008848406 -2.1323319312 -1.3371592586
BR -0.6501183997  0.0169710494  2.3240479889
15
Step 3  E=-3010.2021568677  phi=145.713  theta=71.335
C  -1.4739856143  1.1787548744 -1.6106733553
C  -0.0776117309  1.1959839659 -1.5859530400
C   0.5934960247 -0.0083180495 -1.4876247072
C  -2.1553113234 -0.0291660295 -1.5372689014
H  -1.9989014395  2.0860213851 -1.6861591492
H   0.4818543697  2.1221025718 -1.6426180664
H  -3.2051981450 -0.0407428800 -1.5562190373
N   2.0765811666 -0.0022216057 -1.4607576993
O   2.6344080726 -1.0645757082 -1.3753437259
O   2.6228921563  1.0783923350 -1.5270889559
C  -1.4594117598 -1.2270075650 -1.4376278395
H  -1.9907508701 -2.1691957853 -1.3820082979
C  -0.0612595155 -1.2261108706 -1.4113455049
H   0.4987889088 -2.1266406110 -1.3378197826
BR -0.6501183997  0.0169710494  2.3240479889
15
Step 4  E=-3010.2012171777  phi=145.792  theta=71.333
C  -1.4764544717  1.1784088252 -1.6107528247
C  -0.0756265001  1.1955451060 -1.5857447444
C   0.5932683990 -0.0076638756 -1.4876424500
C  -2.1560039425 -0.0287700219 -1.5375108731
H  -1.9919282566  2.0764886230 -1.6859015696
H   0.4834876374  2.1227026937 -1.6430003949
H  -3.1926069672 -0.0422638095 -1.5562796719
N   2.0799585860 -0.0040567848 -1.4605242554
O   2.6321824268 -1.0628074950 -1.3753498037
O   2.6216327983  1.0781004908 -1.5271614038
C  -1.4620974365 -1.2263819448 -1.4372493100
H  -1.9910445748 -2.1696360718 -1.3825553820
C  -0.0585206101 -1.2259575882 -1.4106772257
H   0.4970584376 -2.1208639092 -1.3385278987
BR -0.6501183997  0.0169710494  2.3240479889
15
Step 5  E=-3010.1998659005  phi=145.882  theta=71.330
C  -1.4791400124  1.1776736878 -1.6108231830
C  -0.0733407751  1.1950600679 -1.5854978176
C   0.5930624785 -0.0069352049 -1.4876572916
C  -2.1564854666 -0.0282707613 -1.5377996267
H  -1.9858815515  2.0687523093 -1.6858950060
H   0.4853874861  2.1232392315 -1.6434475434
H  -3.1821160769 -0.0440316743 -1.5564434493
N   2.0839093218 -0.0061536352 -1.4602503301
O   2.6295639675 -1.0607736244 -1.3753477890
O   2.6201384600  1.0777553312 -1.5272502712
C  -1.4651938242 -1.2256423723 -1.4367806265
H  -1.9915417431 -2.1702112885 -1.3832035541
C  -0.0554449408 -1.2255866976 -1.4098820927
H   0.4962386086 -2.1158798263 -1.3392029555
BR -0.6501183997  0.0169710494  2.3240479889
15
Step 6  E=-3010.1986645967  phi=145.977  theta=71.327
C  -1.4818946342  1.1764451128 -1.6108745853
C  -0.0708245766  1.1945520729 -1.5852163615
C   0.5929168435 -0.0061599002 -1.4876659228
C  -2.1566295040 -0.0276709103 -1.5381314425
H  -1.9817014988  2.0642891012 -1.6862584812
H   0.4875079903  2.1236301718 -1.6439493469
H  -3.1756063113 -0.0460012521 -1.5567494381
N   2.0883305956 -0.0084233777 -1.4599428921
O   2.6266136552 -1.0585519516 -1.3753318052
O   2.6184349444  1.0773633582 -1.5273557269
C  -1.4686052643 -1.2248052884 -1.4362192613
H  -1.9922980240 -2.1709110244 -1.3839417872
C  -0.0521601061 -1.2249357687 -1.4089681429
H   0.4967996310 -2.1124525463 -1.3397728550
BR -0.6501183997  0.0169710494  2.3240479889
15
Step 7  E=-3010.1981233393  phi=146.075  theta=71.323
C  -1.4845921227  1.1746763625 -1.6109015174
C  -0.0681504674  1.1940434479 -1.5849047159
C   0.5928726996 -0.0053635105 -1.4876649425
C  -2.1563749871 -0.0269799888 -1.5385028863
H  -1.9799963834  2.0640083739 -1.6870664352
H   0.4898042548  2.1238062174 -1.6444955727
H  -3.1742797180 -0.0481185133 -1.5572279723
N   2.0931049450 -0.0107627267 -1.4596100983
O   2.6234024851 -1.0562340689 -1.3752948695
O   2.6165517989  1.0769324007 -1.5274779833
C  -1.4722302500 -1.2238916131 -1.4355626466
H  -1.9933597693 -2.1717030944 -1.3847580882
C  -0.0487858602 -1.2239684741 -1.4079414193
H   0.4990432700 -2.1110825740 -1.3401855086
BR -0.6501183997  0.0169710494  2.3240479889
15
Step 8  E=-3010.1983066913  phi=146.171  theta=71.318
C  -1.4871419161  1.1724005950 -1.6109047949
C  -0.0653908472  1.1935542748 -1.5845672724
C   0.5929719129 -0.0045682897 -1.4876509781
C  -2.1557522034 -0.0262154941 -1.5389112705
H  -1.9809022883  2.0679983987 -1.6883266194
H   0.4922352229  2.1237187438 -1.6450765513
H  -3.1783465691 -0.0503142791 -1.5578948606
N   2.0981029383 -0.0130566597 -1.4592611038
O   2.6200100491 -1.0539235318 -1.3752290097
O   2.6145218809  1.0764719091 -1.5276173186
C  -1.4759650999 -1.2229267671 -1.4348081901
H  -1.9947593573 -2.1725323125 -1.3856396590
C  -0.0454245716 -1.2226840416 -1.4068052897
H   0.5030352007 -2.1118973418 -1.3404162909
BR -0.6501183997  0.0169710494  2.3240479889
15
Step 9  E=-3010.1987690187  phi=146.260  theta=71.313
C  -1.4894926537  1.1697335836 -1.6108919956
C  -0.0626159236  1.1931014004 -1.5842083130
C   0.5932550071 -0.0037925162 -1.4876207893
C  -2.1548852050 -0.0254031948 -1.5393548090
H  -1.9840689829  2.0754878358 -1.6899750974
H   0.4947655939  2.1233453403 -1.6456836997
H  -3.1869768785 -0.0524996901 -1.5587496644
N   2.1031866771 -0.0151825981 -1.4589057567
O   2.6165223624 -1.0517328919 -1.3751254793
O   2.6123808755  1.0759933011 -1.5277741067
C  -1.4797074763 -1.2219399158 -1.4339533465
H  -1.9965124244 -2.1733230607 -1.3865728466
C  -0.0421562351 -1.2211198418 -1.4055603611
H   0.5085850109 -2.1146184540 -1.3404690252
BR -0.6501183997  0.0169710494  2.3240479889
15
Step 10  E=-3010.1988879743  phi=146.338  theta=71.307
C  -1.4916246899  1.1668548580 -1.6108761180
C  -0.0598923482  1.1926978525 -1.5838319282
C   0.5937592196 -0.0030500531 -1.4875713434
C  -2.1539685209 -0.0245760505 -1.5398324210
H  -1.9887764787  2.0850434793 -1.6918909464
H   0.4973666239  2.1226923577 -1.6463098105
H  -3.1985406405 -0.0545678078 -1.5597786469
N   2.1082140926 -0.0170161797 -1.4585541609
O   2.6130288776 -1.0497793300 -1.3749750914
O   2.6101667742  1.0755103322 -1.5279488515
C  -1.4833596732 -1.2209624155 -1.4329957314
H  -1.9986171826 -2.1739855688 -1.3875428855
C  -0.0390386914 -1.2193460782 -1.4042049736
H   0.5152806554 -2.1186177576 -1.3403702422
BR -0.6501183997  0.0169710494  2.3240479889
15
Step 11  E=-3010.1982897260  phi=146.401  theta=71.301
C  -1.4935365606  1.1639753597 -1.6108730470
C  -0.0572822876  1.1923526766 -1.5834419542
C   0.5945167161 -0.0023502892 -1.4874998578
C  -2.1532285204 -0.0237717147 -1.5403433319
H  -1.9941246288  2.0949108522 -1.6939236319
H   0.5000156910  2.1217941839 -1.6469491740
H  -3.2110188476 -0.0564020328 -1.5609606051
N   2.1130439066 -0.0184386314 -1.4582160997
O   2.6096187290 -1.0481788307 -1.3747686803
O   2.6079193238  1.0750394727 -1.5281422242
C  -1.4868314400 -1.2200256602 -1.4319332909
H  -2.0010555956 -2.1744251078 -1.3885335217
C  -0.0361119814 -1.2174542320 -1.4027361362
H   0.5225649287 -2.1230428340 -1.3401589347
BR -0.6501183997  0.0169710494  2.3240479889
15
Step 12  E=-3010.1970395266  phi=146.447  theta=71.294
C  -1.4952316036  1.1613035133 -1.6108988313
C  -0.0548426585  1.1920710656 -1.5830419620
C   0.5955530516 -0.0016982515 -1.4874038135
C  -2.1528840160 -0.0230292077 -1.5408866715
H  -1.9992210718  2.1033637374 -1.6959220566
H   0.5026945970  2.1207092278 -1.6475974326
H  -3.2224199050 -0.0578882083 -1.5622729517
N   2.1175409935 -0.0193453608 -1.4579003534
O   2.6063764318 -1.0470391589 -1.3744976682
O   2.6056794479  1.0746002368 -1.5283550999
C  -1.4900422537 -1.2191586107 -1.4307644930
H  -2.0037958613 -2.1745527685 -1.3895265955
C  -0.0334047025 -1.2155427521 -1.4011505533
H   0.5298298321 -2.1269727309 -1.3398751911
BR -0.6501183997  0.0169710494  2.3240479889
15
Step 13  E=-3010.1955366773  phi=146.473  theta=71.286
C  -1.4967085957  1.1590180070 -1.6109674603
C  -0.0526243597  1.1918547422 -1.5826352595
C   0.5968859333 -0.0010949679 -1.4872809400
C  -2.1531158278 -0.0223853760 -1.5414611966
H  -2.0033208194  2.1089721814 -1.6977575436
H   0.5053867786  2.1195131090 -1.6482512554
H  -3.2310932638 -0.0589262206 -1.5636963856
N   2.1215817568 -0.0196550683 -1.4576139636
O   2.6033774440 -1.0464522109 -1.3741546909
O   2.6034886416  1.0742154159 -1.5285885906
C  -1.4929229342 -1.2183853925 -1.4294885125
H  -2.0067955682 -2.1742963467 -1.3905016848
C  -0.0309402472 -1.2137033625 -1.3994455288
H   0.5365056325 -2.1295653034 -1.3395505309
BR -0.6501183997  0.0169710494  2.3240479889
15
Step 14  E=-3010.1942594646  phi=146.478  theta=71.277
C  -1.4979569515  1.1572497438 -1.6110893647
C  -0.0506714272  1.1917025199 -1.5822249058
C   0.5985243187 -0.0005379453 -1.4871291763
C  -2.1540476524 -0.0218717289 -1.5420651385
H  -2.0059089960  2.1107669221 -1.6993386248
H   0.5080736864  2.1182898419 -1.6489078456
H  -3.2359172620 -0.0594386970 -1.5652178703
N   2.1250590469 -0.0193182894 -1.4573615298
O   2.6006841039 -1.0464866199 -1.3737342074
O   2.6013883315  1.0739111380 -1.5288440667
C  -1.4954166961 -1.2177232560 -1.4281053974
H  -2.0100048250 -2.1736097020 -1.3914358901
C  -0.0287416620 -1.2120101522 -1.3976196120
H   0.5421307462 -2.1301724394 -1.3392013150
BR -0.6501183997  0.0169710494  2.3240479889
15
Step 15  E=-3010.1935243077  phi=146.462  theta=71.268
C  -1.4989551661  1.1560716036 -1.6112705378
C  -0.0490201725  1.1916110091 -1.5818137471
C   0.6004678433 -0.0000217118 -1.4869466222
C  -2.1557360135 -0.0215119224 -1.5426961146
H  -2.0067403965  2.1083213544 -1.7006192769
H   0.5107307366  2.1171221087 -1.6495643618
H  -3.2363898688 -0.0593765093 -1.5668325142
N   2.1278861344 -0.0183240611 -1.4571446382
O   2.5983424326 -1.0471816699 -1.3732330083
O   2.5994191854  1.0737166554 -1.5291231620
C  -1.4974797779 -1.2171811548 -1.4266161843
H  -2.0133688067 -2.1724793014 -1.3923038034
C  -0.0268347533 -1.2105121494 -1.3956729540
H   0.5463984248 -2.1284160741 -1.3388252914
BR -0.6501183997  0.0169710494  2.3240479889
15
Step 16  E=-3010.1933541839  phi=146.427  theta=71.257
C  -1.4996709635  1.1554938112 -1.6115120697
C  -0.0476983611  1.1915754074 -1.5814044502
C   0.6027065661  0.0004615956 -1.4867314822
C  -2.1581662293 -0.0213200657 -1.5433510385
H  -2.0058528229  2.1017806747 -1.7016030697
H   0.5133234242  2.1160819800 -1.6502173513
H  -3.2326596549 -0.0587218037 -1.5685450466
N   2.1299993571 -0.0167034633 -1.4569615235
O   2.5963801878 -1.0485435259 -1.3726505481
O   2.5976203507  1.0736637626 -1.5294277516
C  -1.4990817744 -1.2167590972 -1.4250229691
H  -2.0168293565 -2.1709270655 -1.3930776960
C  -0.0252496447 -1.2092292085 -1.3936074448
H   0.5491821223 -2.1242278928 -1.3384006958
BR -0.6501183997  0.0169710494  2.3240479889
15
Step 17  E=-3010.1934920028  phi=146.373  theta=71.245
C  -1.5000622773  1.1554637370 -1.6118100033
C  -0.0467245216  1.1915902820 -1.5809995385
C   0.6052210027  0.0009216495 -1.4864820135
C  -2.1612527466 -0.0212999569 -1.5440259954
H  -2.0035633308  2.0918545180 -1.7023445643
H   0.5158042291  2.1152233806 -1.6508622831
H  -3.2255171329 -0.0574890723 -1.5703712468
N   2.1313592718 -0.0145292046 -1.4568070336
O   2.5948064063 -1.0505444282 -1.3719890426
O   2.5960285978  1.0737857586 -1.5297598967
C  -1.5002057666 -1.2164483410 -1.4233289130
H  -2.0203254252 -2.1690090916 -1.3937279183
C  -0.0240210294 -1.2081508532 -1.3914266679
H   0.5505425589 -2.1178574207 -1.3378872817
BR -0.6501183997  0.0169710494  2.3240479889
15
Step 18  E=-3010.1935574631  phi=146.306  theta=71.231
C  -1.5000792185  1.1558706571 -1.6121555748
C  -0.0461074312  1.1916502185 -1.5806014236
C   0.6079824193  0.0013694052 -1.4861964843
C  -2.1648444161 -0.0214453642 -1.5447161099
H  -2.0004449084  2.0797681363 -1.7029473250
H   0.5181109420  2.1145773687 -1.6514932695
H  -3.2163404213 -0.0557239312 -1.5723390565
N   2.1319504003 -0.0119110418 -1.4566729204
O   2.5936124275 -1.0531249812 -1.3712533187
O   2.5946773517  1.0741158948 -1.5301217518
C  -1.5008482670 -1.2162324087 -1.4215381789
H  -2.0237923981 -2.1668104658 -1.3942234614
C  -0.0231871612 -1.2072379713 -1.3891356918
H   0.5507173577 -2.1098500413 -1.3372289441
BR -0.6501183997  0.0169710494  2.3240479889
15
Step 19  E=-3010.1933004964  phi=146.230  theta=71.217
C  -1.4996681580  1.1565574987 -1.6125360477
C  -0.0458457652  1.1917502002 -1.5802124127
C   0.6109533686  0.0018166849 -1.4858731506
C  -2.1687372787 -0.0217415018 -1.5454154993
H  -1.9972704053  2.0671480583 -1.7035558837
H   0.5201669437  2.1141509662 -1.6521030387
H  -3.2069653016 -0.0534984803 -1.5744883300
N   2.1317798829 -0.0089875554 -1.4565484202
O   2.5927741412 -1.0561991066 -1.3704504434
O   2.5935956145  1.0746853222 -1.5305154311
C  -1.5010189352 -1.2160887779 -1.4196558184
H  -2.0271605329 -2.1644368258 -1.3945326316
C  -0.0227874012 -1.2064276216 -1.3867406991
H   0.5500910038 -2.1009920525 -1.3363579040
BR -0.6501183997  0.0169710494  2.3240479889
15
Step 20  E=-3010.1928281772  phi=146.150  theta=71.201
C  -1.4987794908  1.1573418628 -1.6129364340
C  -0.0459279009  1.1918856311 -1.5798346851
C   0.6140884433  0.0022758988 -1.4855102521
C  -2.1726980420 -0.0221676155 -1.5461174773
H  -1.9949061773  2.0558123811 -1.7043380552
H   0.5218836304  2.1139295880 -1.6526831742
H  -3.1994414681 -0.0509023322 -1.5768674657
N   2.1308754588 -0.0059153752 -1.4564210438
O   2.5922550384 -1.0596608041 -1.3695891990
O   2.5928068107  1.0755206237 -1.5309428404
C  -1.5007399813 -1.2159910372 -1.4176876128
H  -2.0303529346 -2.1620038087 -1.3946237697
C  -0.0228579898 -1.2056413089 -1.3842484430
H   0.5491415704 -2.0922183036 -1.3352005437
BR -0.6501183997  0.0169710494  2.3240479889
15
Step 21  E=-3010.1926226072  phi=146.070  theta=71.183
C  -1.4973798392  1.1580464020 -1.6133422187
C  -0.0463318973  1.1920519995 -1.5794702398
C   0.6173352288  0.0027598855 -1.4851060258
C  -2.1764989732 -0.0227002677 -1.5468151746
H  -1.9941485825  2.0474589713 -1.7054558415
H   0.5231649816  2.1138827070 -1.6532246073
H  -3.1956633940 -0.0480302572 -1.5795252103
N   2.1292831868 -0.0028572711 -1.4562774701
O   2.5920095987 -1.0633916846 -1.3686794833
O   2.5923276218  1.0766411256 -1.5314054846
C  -1.5000452004 -1.2159112256 -1.4156398821
H  -2.0332837282 -2.1596259276 -1.3944659255
C  -0.0234259553 -1.2047966256 -1.3816655449
H   0.5483634603 -2.0844829234 -1.3336847344
BR -0.6501183997  0.0169710494  2.3240479889
15
Step 22  E=-3010.1932498017  phi=145.997  theta=71.164
C  -1.4954669095  1.1585334633 -1.6137427098
C  -0.0470257329  1.1922442860 -1.5791208300
C   0.6206354199  0.0032818441 -1.4846587306
C  -2.1799586643 -0.0233165205 -1.5475026034
H  -1.9955272444  2.0433028857 -1.7070288545
H   0.5239138256  2.1139717539 -1.6537182798
H  -3.1969354153 -0.0449704079 -1.5824976177
N   2.1270651850  0.0000294616 -1.4561044394
O   2.5919866049 -1.0672683013 -1.3677317117
O   2.5921669141  1.0780562626 -1.5319042688
C  -1.4989786808 -1.2158220185 -1.4135192801
H  -2.0358571032 -2.1574063716 -1.3940294504
C  -0.0245017685 -1.2038210296 -1.3789976946
H   0.5481733719 -2.0786062979 -1.3317479410
BR -0.6501183997  0.0169710494  2.3240479889
15
Step 23  E=-3010.1949260162  phi=145.935  theta=71.143
C  -1.4930819933  1.1587332217 -1.6141339664
C  -0.0479679662  1.1924563440 -1.5787878769
C   0.6239260713  0.0038551707 -1.4841666678
C  -2.1829758414 -0.0239960232 -1.5481759005
H  -1.9991378554  2.0437806007 -1.7091017262
H   0.5240392002  2.1141590617 -1.6541559204
H  -3.2036147510 -0.0417986360 -1.5857935175
N   2.1242975176  0.0026031230 -1.4558895573
O   2.5921320883 -1.0711685561 -1.3667562861
O   2.5923248897  1.0797633303 -1.5324393165
C  -1.4975932754 -1.2156984543 -1.4113326173
H  -2.0379679628 -2.1554291633 -1.3932864683
C  -0.0260723224 -1.2026650454 -1.3762489342
H   0.5488179091 -2.0751282257 -1.3293446467
BR -0.6501183997  0.0169710494  2.3240479889
15
Step 24  E=-3010.1973105877  phi=145.888  theta=71.121
C  -1.4903138606  1.1586538232 -1.6145201016
C  -0.0491090207  1.1926804597 -1.5784724321
C   0.6271409561  0.0044932107 -1.4836281903
C  -2.1855420021 -0.0247214774 -1.5488342308
H  -2.0045793928  2.0484499839 -1.7116296611
H   0.5234640500  2.1144165364 -1.6545308043
H  -3.2149933819 -0.0385817013 -1.5893846195
N   2.1210681960  0.0047454317 -1.4556219469
O   2.5923917487 -1.0749767930 -1.3657631658
O   2.5927925917  1.0817459417 -1.5330098253
C  -1.4959490371 -1.2155189576 -1.4090867085
H  -2.0395046442 -2.1537546878 -1.3922112336
C  -0.0280964792 -1.2013113772 -1.3734211428
H   0.5503088907 -2.0742073041 -1.3264513435
BR -0.6501183997  0.0169710494  2.3240479889
15
Step 25  E=-3010.1997201849  phi=145.861  theta=71.097
C  -1.4872911424  1.1583693870 -1.6149123259
C  -0.0503931580  1.1929072725 -1.5781751640
C   0.6302120172  0.0052087673 -1.4830416883
C  -2.1877274662 -0.0254777432 -1.5494799032
H  -2.0110301142  2.0561337585 -1.7144892282
H   0.5221324475  2.1147327803 -1.6548384234
H  -3.2294796258 -0.0353862113 -1.5932053371
N   2.1174751536  0.0063666321 -1.4552927143
O   2.5927128129 -1.0785874787 -1.3647615544
O   2.5935518825  1.0839734445 -1.5336139830
C  -1.4941116414 -1.2152656117 -1.4067882771
H  -2.0403538012 -2.1524189393 -1.3907803967
C  -0.0305051208 -1.1997770543 -1.3705139030
H   0.5524087238 -2.0755989953 -1.3230676919
BR -0.6501183997  0.0169710494  2.3240479889
15
Step 26  E=-3010.2015545674  phi=145.855  theta=71.070
C  -1.4841658779  1.1579924508 -1.6153262566
C  -0.0517610381  1.1931260674 -1.5778963934
C   0.6330709200  0.0060134516 -1.4824055531
C  -2.1896486582 -0.0262504966 -1.5501176568
H  -2.0174280319  2.0652339287 -1.7175087486
H   0.5200155727  2.1151176695 -1.6550769564
H  -3.2449892867 -0.0322866055 -1.5971625062
N   2.1136240204  0.0074079071 -1.4548952231
O   2.5930453901 -1.0819076058 -1.3637596912
O   2.5945759567  1.0864014124 -1.5342489517
C  -1.4921507639 -1.2149238062 -1.4044438931
H  -2.0404071147 -2.1514362889 -1.3889732338
C  -0.0332062358 -1.1981080412 -1.3675247448
H   0.5546720413 -2.0787192467 -1.3192136596
BR -0.6501183997  0.0169710494  2.3240479889
15
Step 27  E=-3010.2025828572  phi=145.873  theta=71.041
C  -1.4810943938  1.1576428797 -1.6157786671
C  -0.0531526095  1.1933253713 -1.5776361501
C   0.6356507277  0.0069169349 -1.4817181247
C  -2.1914312351 -0.0270252566 -1.5507534665
H  -2.0226807400  2.0740830418 -1.7205048819
H   0.5171157801  2.1156037606 -1.6552474865
H  -3.2593793243 -0.0293673886 -1.6011505353
N   2.1096255707  0.0078413850 -1.4544251948
O   2.5933434245 -1.0848580542 -1.3627647229
O   2.5958303792  1.0889731829 -1.5349109265
C  -1.4901382802 -1.2144815094 -1.4020599378
H  -2.0395691388 -2.1508049298 -1.3867718505
C  -0.0360938365 -1.1963683259 -1.3644496863
H   0.5565297280 -2.0827707895 -1.3149236539
BR -0.6501183997  0.0169710494  2.3240479889
15
Step 28  E=-3010.2029454196  phi=145.914  theta=71.009
C  -1.4782207633  1.1574226995 -1.6162847175
C  -0.0545100250  1.1934937317 -1.5773942617
C   0.6378877013  0.0079262841 -1.4809776344
C  -2.1931804480 -0.0277871316 -1.5513933105
H  -2.0258409754  2.0812275950 -1.7233137798
H   0.5134682196  2.1162442241 -1.6553539076
H  -3.2707951241 -0.0267193600 -1.6050666624
N   2.1055928080  0.0076682629 -1.4538806708
O   2.5935653543 -1.0873741897 -1.3617826353
O   2.5972745608  1.0916222547 -1.5355952610
C  -1.4881462422 -1.2139284263 -1.3996425589
H  -2.0377653591 -2.1505137655 -1.3841613928
C  -0.0390584713 -1.1946269415 -1.3612838841
H   0.5573896379 -2.0868930702 -1.3102393377
BR -0.6501183997  0.0169710494  2.3240479889
15
Step 29  E=-3010.2029648657  phi=145.978  theta=70.975
C  -1.4756650904  1.1574001599 -1.6168560591
C  -0.0557803088  1.1936206285 -1.5771704371
C   0.6397231974  0.0090453485 -1.4801821480
C  -2.1949626023 -0.0285211093 -1.5520421654
H  -2.0262226899  2.0856080069 -1.7258121639
H   0.5091397302  2.1171073337 -1.6554025371
H  -3.2778893183 -0.0244324556 -1.6088232450
N   2.1016377333  0.0069156278 -1.4532618715
O   2.5936745755 -1.0894059473 -1.3608182264
O   2.5988635486  1.0942752624 -1.5362966441
C  -1.4862446334 -1.2132552819 -1.3971976143
H  -2.0349495504 -2.1505492633 -1.3811302731
C  -0.0419971668 -1.1929460126 -1.3580223047
H   0.5567297020 -2.0903002062 -1.3052026115
BR -0.6501183997  0.0169710494  2.3240479889
15
Step 30  E=-3010.2029234143  phi=146.065  theta=70.938
C  -1.4735162318  1.1576017636 -1.6174997531
C  -0.0569176062  1.1936974751 -1.5769643696
C   0.6411056263  0.0102742982 -1.4793295176
C  -2.1967959630 -0.0292126031 -1.5527032785
H  -2.0234635481  2.0866508895 -1.7279293627
H   0.5042250824  2.1182679934 -1.6554014497
H  -3.2799332680 -0.0225880304 -1.6123566680
N   2.0978679370  0.0056325725 -1.4525709892
O   2.5936397966 -1.0909176039 -1.3598751085
O   2.6005499670  1.0968552014 -1.5370093095
C  -1.4844990658 -1.2124533784 -1.3947305776
H  -2.0311096204 -2.1509009594 -1.3776704224
C  -0.0448214703 -1.1913716282 -1.3546602906
H   0.5541692426 -2.0923867632 -1.2998496353
BR -0.6501183997  0.0169710494  2.3240479889
15
Step 31  E=-3010.2029125597  phi=146.171  theta=70.897
C  -1.4718277300  1.1580095368 -1.6182177239
C  -0.0578848957  1.1937186830 -1.5767758521
C   0.6419923968  0.0116093071 -1.4784173456
C  -2.1986477834 -0.0298480078 -1.5533776533
H  -2.0175505542  2.0843047718 -1.7296534357
H   0.4988409023  2.1197971154 -1.6553596028
H  -3.2768602755 -0.0212522796 -1.6156338161
N   2.0943831890  0.0038861103 -1.4518119482
O   2.5934353575 -1.0918873805 -1.3589557242
O   2.6022859486  1.0992845949 -1.5377272530
C  -1.4829685866 -1.2115145249 -1.3922464105
H  -2.0262713361 -2.1515645651 -1.3737775434
C  -0.0474631463 -1.1899279908 -1.3511940043
H   0.5495147372 -2.0927963092 -1.2942061552
BR -0.6501183997  0.0169710494  2.3240479889
15
Step 32  E=-3010.2027992788  phi=146.294  theta=70.853
C  -1.4706161404  1.1585615494 -1.6190065510
C  -0.0586551158  1.1936827510 -1.5766048868
C   0.6423517467  0.0130422482 -1.4774429612
C  -2.2004351684 -0.0304150287 -1.5540636948
H  -2.0088211181  2.0790411725 -1.7310336494
H   0.4931179663  2.1217501061 -1.6552858710
H  -3.2692671057 -0.0204715011 -1.6186569467
N   2.0912722013  0.0017572413 -1.4509901556
O   2.5930415550 -1.0923069567 -1.3580613728
O   2.6040249079  1.1014883718 -1.5384444410
C  -1.4817037170 -1.2104314133 -1.3897493851
H  -2.0204995672 -2.1525420689 -1.3694514105
C  -0.0498775256 -1.1886144956 -1.3476207762
H   0.5427821247 -2.0914560706 -1.2882840225
BR -0.6501183997  0.0169710494  2.3240479889
15
Step 33  E=-3010.2023192112  phi=146.431  theta=70.806
C  -1.4698617413  1.1591554706 -1.6198575875
C  -0.0592116509  1.1935932383 -1.5764517880
C   0.6421643538  0.0145605164 -1.4764034103
C  -2.2020296081 -0.0309028179 -1.5547570393
H  -1.9979406638  2.0718232264 -1.7321793847
H   0.4871927896  2.1241559357 -1.6551880985
H  -3.2583754252 -0.0202695318 -1.6214666900
N   2.0886097469 -0.0006625639 -1.4501122603
O   2.5924449737 -1.0921809674 -1.3571922412
O   2.6057230580  1.1033962914 -1.5391549974
C  -1.4807448534 -1.2091984114 -1.3872428755
H  -2.0138969426 -2.1538387287 -1.3646961664
C  -0.0520447159 -1.1874054081 -1.3439393347
H   0.5341985897 -2.0885821488 -1.2820788858
BR -0.6501183997  0.0169710494  2.3240479889
15
Step 34  E=-3010.2012746302  phi=146.577  theta=70.756
C  -1.4695125630  1.1596566806 -1.6207576401
C  -0.0595481895  1.1934594700 -1.5763172671
C   0.6414246046  0.0161469910 -1.4752954686
C  -2.2032671782 -0.0313018841 -1.5554507352
H  -1.9858464701  2.0640237473 -1.7332530014
H   0.4811996281  2.1270083833 -1.6550723253
H  -3.2459294200 -0.0206477509 -1.6241412465
N   2.0864542862 -0.0032743669 -1.4491859308
O   2.5916387814 -1.0915265096 -1.3563474344
O   2.6073406295  1.1049448491 -1.5398533632
C  -1.4801210722 -1.2078127370 -1.3847290994
H  -2.0066000635 -2.1554573515 -1.3595206248
C  -0.0539686639 -1.1862520616 -1.3401498798
H   0.5241843587 -2.0846562035 -1.2755692934
BR -0.6501183997  0.0169710494  2.3240479889
15
Step 35  E=-3010.1997536808  phi=146.728  theta=70.702
C  -1.4694930412  1.1599135532 -1.6216905328
C  -0.0596679562  1.1932967864 -1.5762024610
C   0.6401413906  0.0177802510 -1.4741156791
C  -2.2039676144 -0.0316039452 -1.5561360415
H  -1.9736419511  2.0572626988 -1.7344524718
H   0.4752639759  2.1302609969 -1.6549423138
H  -3.2339915077 -0.0215880556 -1.6267883829
N   2.0848462095 -0.0059742540 -1.4482196459
O   2.5906229426 -1.0903726524 -1.3555250102
O   2.6088427847  1.1060786765 -1.5405344279
C  -1.4798493152 -1.2062758815 -1.3822088608
H  -1.9987737253 -2.1573907898 -1.3539385451
C  -0.0556739688 -1.1850879142 -1.3362539687
H   0.5133125650 -2.0803702136 -1.2687178649
BR -0.6501183997  0.0169710494  2.3240479889
15
Step 36  E=-3010.1982153385  phi=146.879  theta=70.646
C  -1.4697178600  1.1597815789 -1.6226398685
C  -0.0595825088  1.1931262377 -1.5761089109
C   0.6383383314  0.0194350694 -1.4728604176
C  -2.2039641958 -0.0318017280 -1.5568041145
H  -1.9624337903  2.0531435673 -1.7359804858
H   0.4694983482  2.1338268401 -1.6547994568
H  -3.2246116787 -0.0230585960 -1.6295269436
N   2.0838067832 -0.0086554657 -1.4472224902
O   2.5894043106 -1.0887598712 -1.3547220189
O   2.6102002452  1.1067515128 -1.5411936393
C  -1.4799339571 -1.2045951335 -1.3796812690
H  -1.9906037677 -2.1596139596 -1.3479688722
C  -0.0572002413 -1.1838368434 -1.3322541142
H   0.5022449348 -2.0765346411 -1.2614754588
BR -0.6501183997  0.0169710494  2.3240479889
15
Step 37  E=-3010.1972998882  phi=147.027  theta=70.586
C  -1.4701090506  1.1591542347 -1.6235927751
C  -0.0593103021  1.1929736637 -1.5760384994
C   0.6360533591  0.0210834446 -1.4715259940
C  -2.2031413292 -0.0318891247 -1.5574485119
H  -1.9531319037  2.0529121970 -1.7380021425
H   0.4640007382  2.1375833909 -1.6546430930
H  -3.2194035787 -0.0250204760 -1.6324582163
N   2.0833378377 -0.0112103619 -1.4462039426
O   2.5879967095 -1.0867392786 -1.3539345559
O   2.6113896753  1.1069268472 -1.5418270931
C  -1.4803668149 -1.2027848984 -1.3771435197
H  -1.9822893264 -2.1620768824 -1.3416358263
C  -0.0585943068 -1.1824246983 -1.3281530121
H   0.4916462092 -2.0739506189 -1.2537892525
BR -0.6501183997  0.0169710494  2.3240479889
15
Step 38  E=-3010.1974247818  phi=147.166  theta=70.522
C  -1.4706115917  1.1579923988 -1.6245436577
C  -0.0588753411  1.1928683141 -1.5759933425
C   0.6333376005  0.0226959136 -1.4701087803
C  -2.2014693032 -0.0318616562 -1.5580678904
H  -1.9462692378  2.0571293960 -1.7406023162
H   0.4588557269  2.1413823311 -1.6544712222
H  -3.2191461513 -0.0274320375 -1.6356344360
N   2.0834222117 -0.0135324461 -1.4451736421
O   2.5864208963 -1.0843715955 -1.3531578430
O   2.6123938776  1.1065783465 -1.5424316094
C  -1.4811276627 -1.2008675663 -1.3745907417
H  -1.9740353833 -2.1647003703 -1.3349688439
C  -0.0599011667 -1.1807927133 -1.3239524856
H   0.4820887425 -2.0732604294 -1.2456144618
BR -0.6501183997  0.0169710494  2.3240479889
15
Step 39  E=-3010.1984801550  phi=147.293  theta=70.456
C  -1.4712013125  1.1563406564 -1.6254964901
C  -0.0583061910  1.1928411707 -1.5759756856
C   0.6302535989  0.0242431962 -1.4686053616
C  -2.1990216944 -0.0317173582 -1.5586677691
H  -1.9419139318  2.0654897556 -1.7437598472
H   0.4541375937  2.1450631045 -1.6542815272
H  -3.2235763066 -0.0302478982 -1.6390374968
N   2.0840249241 -0.0155185384 -1.4441411271
O   2.5847040139 -1.0817258992 -1.3523863349
O   2.6132018474  1.1056901539 -1.5430048018
C  -1.4821854142 -1.1988735773 -1.3720159602
H  -1.9660462962 -2.1673755759 -1.3280023016
C  -0.0611558672 -1.1789101153 -1.3196522653
H   0.4739660711 -2.0748078866 -1.2369277287
BR -0.6501183997  0.0169710494  2.3240479889
15
Step 40  E=-3010.1999057082  phi=147.402  theta=70.386
C  -1.4718819534  1.1543225411 -1.6264645211
C  -0.0576353914  1.1929231493 -1.5759877921
C   0.6268729874  0.0256978670 -1.4670126862
C  -2.1959664536 -0.0314577612 -1.5592604453
H  -1.9397129168  2.0768758896 -1.7473511464
H   0.4499144525  2.1484685392 -1.6540725584
H  -3.2314749211 -0.0334132466 -1.6425786169
N   2.0850949966 -0.0170713624 -1.4431155363
O   2.5828786729 -1.0788779386 -1.3516138632
O   2.6138087367  1.1042571566 -1.5435451462
C  -1.4834999452 -1.1968405150 -1.3694102279
H  -1.9585207666 -2.1699680659 -1.3207749434
C  -0.0623782673 -1.1767823182 -1.3152489839
H   0.4674401036 -2.0785484780 -1.2277386042