15
Step 0  E=-3010.1860743414  phi=139.171  theta=117.055
C  -1.4693944691  1.1787774104 -1.6104384055
C  -0.0811473952  1.1968153277 -1.5863027762
C   0.5940329536 -0.0095152700 -1.4876050651
C  -2.1535555797 -0.0297293709 -1.5367950215
H  -2.0138457769  2.1069947277 -1.6869216065
H   0.4784597457  2.1199533327 -1.6419530781
H  -3.2329808318 -0.0380673562 -1.5562154809
N   2.0704656514  0.0012045797 -1.4611833969
O   2.6383949701 -1.0678569886 -1.3753510470
O   2.6251432943  1.0789313461 -1.5269513612
C  -1.4546519399 -1.2280693325 -1.4382586808
H  -1.9901254272 -2.1679930314 -1.3811418357
C  -0.0663606165 -1.2259610264 -1.4125322510
H   0.5046633191 -2.1412938352 -1.3363797330
BR -0.6501183997  0.0169710494  2.3240479889
15
Step 1  E=-3010.1861948479  phi=139.191  theta=117.060
C  -1.4707462619  1.1789660611 -1.6103207670
C  -0.0803429920  1.1966435737 -1.5861975231
C   0.5940196442 -0.0091429356 -1.4876816087
C  -2.1542534276 -0.0294624132 -1.5366998355
H  -2.0063188216  2.0951689499 -1.6859800174
H   0.4776184900  2.1180335016 -1.6421176465
H  -3.2193449902 -0.0387063587 -1.5560095431
N   2.0711065921  0.0009176236 -1.4611551623
O   2.6379356572 -1.0675920763 -1.3754551767
O   2.6249315297  1.0789248639 -1.5269229547
C  -1.4557735172 -1.2277777698 -1.4381731572
H  -1.9889867501 -2.1664403316 -1.3815704804
C  -0.0654464996 -1.2259058987 -1.4123863086
H   0.5047241379 -2.1411402715 -1.3370538718
BR -0.6501183997  0.0169710494  2.3240479889
15
Step 2  E=-3010.1851651593  phi=139.223  theta=117.068
C  -1.4728726072  1.1791117891 -1.6101102545
C  -0.0790525917  1.1963423801 -1.5860211422
C   0.5940076680 -0.0085428398 -1.4878065011
C  -2.1552391000 -0.0290044867 -1.5365376588
H  -1.9949840243  2.0773955778 -1.6845822118
H   0.4763898414  2.1151192527 -1.6424049112
H  -3.1988165710 -0.0397420181 -1.5557204392
N   2.0721597626  0.0004504446 -1.4611095417
O   2.6371789833 -1.0671610956 -1.3756277493
O   2.6245829845  1.0789162334 -1.5268756034
C  -1.4575882619 -1.2272773449 -1.4380296081
H  -1.9872730181 -2.1641080716 -1.3822665927
C  -0.0639557485 -1.2258031755 -1.4121456342
H   0.5048751313 -2.1409441574 -1.3381627433
BR -0.6501183997  0.0169710494  2.3240479889
15
Step 3  E=-3010.1819114237  phi=139.266  theta=117.080
C  -1.4755825487  1.1789654501 -1.6097851809
C  -0.0773477673  1.1958925244 -1.5857730162
C   0.5940122983 -0.0077416943 -1.4879758608
C  -2.1562485396 -0.0283423065 -1.5363029137
H  -1.9816431550  2.0565816866 -1.6829845431
H   0.4750098007  2.1116025364 -1.6428328672
H  -3.1746781170 -0.0411357154 -1.5554275415
N   2.0736027006 -0.0001796037 -1.4610487285
O   2.6361382752 -1.0665801386 -1.3758672811
O   2.6241041506  1.0789083844 -1.5268092722
C  -1.4600198820 -1.2265481973 -1.4378268983
H  -1.9852389609 -2.1613447202 -1.3832053128
C  -0.0619373856 -1.2256394866 -1.4118138493
H   0.5051828309 -2.1407849666 -1.3396861100
BR -0.6501183997  0.0169710494  2.3240479889
15
Step 4  E=-3010.1764794461  phi=139.319  theta=117.094
C  -1.4786201799  1.1782011522 -1.6093168688
C  -0.0753195089  1.1952725335 -1.5854531045
C   0.5940544883 -0.0067715063 -1.4881845925
C  -2.1569342204 -0.0274654362 -1.5359877832
H  -1.9686766083  2.0366072652 -1.6815281446
H   0.4737615431  2.1079604749 -1.6434234167
H  -3.1512921306 -0.0428445512 -1.5552351378
N   2.0754043259 -0.0009475142 -1.4609758251
O   2.6348321521 -1.0658719472 -1.3761716877
O   2.6235039534  1.0789049955 -1.5267238865
C  -1.4629704428 -1.2255674534 -1.4375637703
H  -1.9831989251 -2.1585696110 -1.3843567235
C  -0.0594576958 -1.2254005030 -1.4113955108
H   0.5057255954 -2.1407542182 -1.3415986203
BR -0.6501183997  0.0169710494  2.3240479889
15
Step 5  E=-3010.1708858039  phi=139.378  theta=117.112
C  -1.4816995862  1.1764742083 -1.6086746653
C  -0.0730684039  1.1944627387 -1.5850619784
C   0.5941602181 -0.0056674068 -1.4884266820
C  -2.1569254129 -0.0263705261 -1.5355831655
H  -1.9586605227  2.0217132192 -1.6805863127
H   0.4729325185  2.1046877745 -1.6441987090
H  -3.1334322535 -0.0448282684 -1.5552578657
N   2.0775254311 -0.0018208403 -1.4608948128
O   2.6332843128 -1.0650656900 -1.3765383098
O   2.6227936420  1.0789103627 -1.5266193282
C  -1.4663257826 -1.2243154436 -1.4372386280
H  -1.9814868852 -2.1562094068 -1.3856900590
C  -0.0565962499 -1.2250735012 -1.4108956818
H   0.5065811509 -2.1409382577 -1.3438718579
BR -0.6501183997  0.0169710494  2.3240479889
15
Step 6  E=-3010.1683226249  phi=139.442  theta=117.133
C  -1.4845650380  1.1735257108 -1.6078350572
C  -0.0706938042  1.1934493542 -1.5846007332
C   0.5943596824 -0.0044662103 -1.4886954674
C  -2.1559364563 -0.0250666976 -1.5350806536
H  -1.9536901391  2.0153590268 -1.6804660556
H   0.4727677444  2.1022199520 -1.6451764393
H  -3.1250623123 -0.0470450861 -1.5555941333
N   2.0799193893 -0.0027603987 -1.4608104799
O   2.6315231673 -1.0641964562 -1.3769639634
O   2.6219866683  1.0789293549 -1.5264954407
C  -1.4699602954 -1.2227833571 -1.4368490906
H  -1.9804109051 -2.1546272497 -1.3871779266
C  -0.0534410987 -1.2246495995 -1.4103195334
H   0.5078137537 -2.1414003807 -1.3464761742
BR -0.6501183997  0.0169710494  2.3240479889
15
Step 7  E=-3010.1705106791  phi=139.508  theta=117.157
C  -1.4870554500  1.1693002806 -1.6067921558
C  -0.0682843913  1.1922285146 -1.5840709537
C   0.5946862625 -0.0032055426 -1.4889838689
C  -2.1538890684 -0.0235822726 -1.5344750818
H  -1.9546440134  2.0189199907 -1.6812923208
H   0.4734269392  2.1008600962 -1.6463649121
H  -3.1279410023 -0.0494290968 -1.5562927646
N   2.0825331062 -0.0037214359 -1.4607283014
O   2.6295812991 -1.0633044492 -1.3774450186
O   2.6210985445  1.0789674408 -1.5263520382
C  -1.4737417548 -1.2209805237 -1.4363915776
H  -1.9802094127 -2.1540561299 -1.3887996901
C  -0.0500838773 -1.2241254268 -1.4096720910
H   0.5094628800 -2.1421653147 -1.3493820597
BR -0.6501183997  0.0169710494  2.3240479889
15
Step 8  E=-3010.1759471588  phi=139.574  theta=117.184
C  -1.4891330074  1.1640024643 -1.6055632816
C  -0.0659123210  1.1908099878 -1.5834748724
C   0.5951752122 -0.0019232849 -1.4892845582
C  -2.1509734207 -0.0219697062 -1.5337663446
H  -1.9608643266  2.0310609934 -1.6829454823
H   0.4749536601  2.1007246219 -1.6477588759
H  -3.1409090133 -0.0518610674 -1.5573295587
N   2.0853082351 -0.0046551785 -1.4606542795
O   2.6274947373 -1.0624338829 -1.3779775035
O   2.6201466642  1.0790307443 -1.5261889175
C  -1.4775369394 -1.2189393026 -1.4358610943
H  -1.9810181902 -2.1545501166 -1.3905432107
C  -0.0466153856 -1.2235039804 -1.4089580948
H   0.5115352062 -2.1432090893 -1.3525608595
BR -0.6501183997  0.0169710494  2.3240479889
15
Step 9  E=-3010.1813857842  phi=139.637  theta=117.214
C  -1.4908556294  1.1580461802 -1.6041852928
C  -0.0636318469  1.1892197726 -1.5828156461
C   0.5958620269 -0.0006572688 -1.4895900597
C  -2.1475994715 -0.0203046480 -1.5329592301
H  -1.9705046910  2.0482961724 -1.6851011029
H   0.4772635931  2.1017216862 -1.6493372645
H  -3.1604128674 -0.0541605036 -1.5586097879
N   2.0881826535 -0.0055107482 -1.4605947455
O   2.6253020349 -1.0616315655 -1.3785572360
O   2.6191500772  1.0791261170 -1.5260058726
C  -1.4812180222 -1.2167159603 -1.4352513885
H  -1.9828553219 -2.1559656153 -1.3924044658
C  -0.0431220507 -1.2227944908 -1.4081820338
H   0.5140011626 -2.1444564230 -1.3559847274
BR -0.6501183997  0.0169710494  2.3240479889
15
Step 10  E=-3010.1845619181  phi=139.695  theta=117.246
C  -1.4923182620  1.1519357809 -1.6027044332
C  -0.0614815554  1.1875003114 -1.5820976161
C   0.5967806112  0.0005552304 -1.4898928202
C  -2.1442744954 -0.0186782911 -1.5320614226
H  -1.9812582784  2.0662847697 -1.6873405882
H   0.4801553192  2.1035680870 -1.6510634653
H  -3.1818493790 -0.0561111089 -1.5599947348
N   2.0910921616 -0.0062373567 -1.4605561353
O   2.6230431762 -1.0609452097 -1.3791799772
O   2.6181292162  1.0792611882 -1.5258027067
C  -1.4846687252 -1.2143870508 -1.4345554606
H  -1.9856265462 -2.1579787248 -1.3943850588
C  -0.0396834836 -1.2220114513 -1.4073482401
H   0.5167966765 -2.1457864246 -1.3596259537
BR -0.6501183997  0.0169710494  2.3240479889
15
Step 11  E=-3010.1852231885  phi=139.745  theta=117.280
C  -1.4936029188  1.1461533912 -1.6011660571
C  -0.0594884802  1.1857075428 -1.5813263293
C   0.5979614018  0.0016782503 -1.4901852828
C  -2.1414835543 -0.0171862941 -1.5310810027
H  -1.9909957487  2.0810167430 -1.6892607505
H   0.4833415480  2.1058403331 -1.6528881766
H  -3.2008540778 -0.0575020437 -1.5613353500
N   2.0939723177 -0.0067867647 -1.4605447388
O   2.6207583588 -1.0604214956 -1.3798416018
O   2.6171055851  1.0794443963 -1.5255792471
C  -1.4877887774 -1.2120421189 -1.4337663222
H  -1.9891479020 -2.1601357264 -1.3964882119
C  -0.0363710546 -1.2211730127 -1.4064610404
H   0.5198297650 -2.1470457132 -1.3634558802
BR -0.6501183997  0.0169710494  2.3240479889
15
Step 12  E=-3010.1844011358  phi=139.784  theta=117.316
C  -1.4947544018  1.1410907500 -1.5996079693
C  -0.0576725251  1.1839050535 -1.5805082897
C   0.5994295655  0.0026783264 -1.4904599987
C  -2.1396156448 -0.0159183399 -1.5300245503
H  -1.9981059452  2.0894745844 -1.6905416406
H   0.4864934127  2.1080470288 -1.6547542089
H  -3.2140582117 -0.0581616692 -1.5624988084
N   2.0967603359 -0.0071158924 -1.4605664404
O   2.6184867042 -1.0601039715 -1.3805382781
O   2.6161014128  1.0796849802 -1.5253353575
C  -1.4904960443 -1.2097742550 -1.4328777950
H  -1.9931787444 -2.1619252195 -1.3987142683
C  -0.0332472984 -1.2202990560 -1.4055248608
H   0.5229907260 -2.1480668242 -1.3674437417
BR -0.6501183997  0.0169710494  2.3240479889
15
Step 13  E=-3010.1832927289  phi=139.812  theta=117.353
C  -1.4957760189  1.1370200586 -1.5980572126
C  -0.0560502417  1.1821567583 -1.5796504398
C   0.6012033740  0.0035257585 -1.4907097570
C  -2.1389323759 -0.0149499915 -1.5288960996
H  -2.0016011056  2.0898556953 -1.6909754897
H   0.4892880522  2.1097069512 -1.6566023855
H  -3.2193662791 -0.0579753713 -1.5633845745
N   2.0993969663 -0.0071894656 -1.4606264577
O   2.6162649572 -1.0600308861 -1.3812666475
O   2.6151392814  1.0799929386 -1.5250709503
C  -1.4927265841 -1.2076703289 -1.4318852279
H  -1.9974576586 -2.1628565890 -1.4010567705
C  -0.0303658891 -1.2194091209 -1.4045443514
H   0.5261641362 -2.1486890770 -1.3715556707
BR -0.6501183997  0.0169710494  2.3240479889
15
Step 14  E=-3010.1825177552  phi=139.827  theta=117.391
C  -1.4966335019  1.1340840934 -1.5965287502
C  -0.0546376029  1.1805197640 -1.5787595846
C   0.6032928198  0.0041959299 -1.4909277219
C  -2.1395588009 -0.0143367019 -1.5276966597
H  -2.0011196758  2.0815926530 -1.6904758724
H   0.4914507083  2.1104192218 -1.6583775379
H  -3.2159953962 -0.0568918612 -1.5639333376
N   2.1018282750 -0.0069824603 -1.4607291047
O   2.6141262564 -1.0602331080 -1.3820239913
O   2.6142417311  1.0803789211 -1.5247859953
C  -1.4944336815 -1.2058024103 -1.4307859891
H  -2.0017352612 -2.1625308226 -1.4034998853
C  -0.0277718949 -1.2185204695 -1.4035244359
H   0.5292406968 -2.1487788558 -1.3757541403
BR -0.6501183997  0.0169710494  2.3240479889
15
Step 15  E=-3010.1818368480  phi=139.828  theta=117.429
C  -1.4972590844  1.1322911829 -1.5950246871
C  -0.0534516645  1.1790387182 -1.5778418451
C   0.6056985582  0.0046703780 -1.4911075478
C  -2.1414802489 -0.0141095041 -1.5264239147
H  -1.9969182056  2.0653425316 -1.6890825513
H   0.4927860963  2.1099172712 -1.6600338760
H  -3.2044648316 -0.0549248892 -1.5641331861
N   2.1040072485 -0.0064821261 -1.4608775933
O   2.6120990595 -1.0607322991 -1.3828083728
O   2.6134308446  1.0808540400 -1.5244805231
C  -1.4955866830 -1.2042214357 -1.4295797255
H  -2.0058004958 -2.1606947337 -1.4060174767
C  -0.0255020895 -1.2176464638 -1.4024703315
H   0.5321273339 -2.1482467292 -1.3799979293
BR -0.6501183997  0.0169710494  2.3240479889
15
Step 16  E=-3010.1802891585  phi=139.813  theta=117.469
C  -1.4975527564  1.1315107858 -1.5935335814
C  -0.0525111344  1.1777421896 -1.5769022275
C   0.6084112289  0.0049375624 -1.4912434704
C  -2.1445390625 -0.0142726336 -1.5250718505
H  -1.9898828624  2.0430022975 -1.6869678116
H   0.4931970972  2.1081029204 -1.6615392177
H  -3.1866084242 -0.0521536704 -1.5640254438
N   2.1058951399 -0.0056893506 -1.4610738947
O   2.6102063104 -1.0615395099 -1.3836187388
O   2.6127278143  1.0814295794 -1.5241546220
C  -1.4961700987 -1.2029536284 -1.4282683863
H  -2.0094989122 -2.1572744417 -1.4085737543
C  -0.0235851609 -1.2167954506 -1.4013875157
H   0.5347543553 -2.1470593632 -1.3842426432
BR -0.6501183997  0.0169710494  2.3240479889
15
Step 17  E=-3010.1768248459  phi=139.784  theta=117.508
C  -1.4973827099  1.1314753812 -1.5920303579
C  -0.0518357848  1.1766410198 -1.5759443258
C   0.6114112006  0.0049933217 -1.4913303788
C  -2.1484354592 -0.0148040842 -1.5236303276
H  -1.9815329506  2.0176947478 -1.6844391466
H   0.4926909331  2.1050597712 -1.6628776778
H  -3.1655664269 -0.0487197133 -1.5637091700
N   2.1074625045 -0.0046191823 -1.4613186705
O   2.6084649105 -1.0626543463 -1.3844549739
O   2.6121524954  1.0821165876 -1.5238084266
C  -1.4961829056 -1.2019998188 -1.4268560358
H  -2.0127425025 -2.1523873347 -1.4111252056
C  -0.0220417376 -1.2159702821 -1.4002816237
H   0.5370790470 -2.1452450109 -1.3884416885
BR -0.6501183997  0.0169710494  2.3240479889
15
Step 18  E=-3010.1714221219  phi=139.741  theta=117.549
C  -1.4965924468  1.1318042579 -1.5904783827
C  -0.0514445134  1.1757282100 -1.5749701123
C   0.6146687427  0.0048410428 -1.4913638908
C  -2.1527472194 -0.0156604910 -1.5220850569
H  -1.9739254838  1.9935532746 -1.6819205992
H   0.4913737717  2.1010460379 -1.6640505689
H  -3.1455930241 -0.0448130451 -1.5633382549
N   2.1086898679 -0.0033004130 -1.4616112798
O   2.6068855350 -1.0640647942 -1.3853178998
O   2.6117229554  1.0829253532 -1.5234421000
C  -1.4956376186 -1.2013375639 -1.4253485066
H  -2.0155106775 -2.1463330091 -1.4136233746
C  -0.0208842059 -1.2151685466 -1.3991583106
H   0.5390854708 -2.1428919565 -1.3925475701
BR -0.6501183997  0.0169710494  2.3240479889
15
Step 19  E=-3010.1660204355  phi=139.685  theta=117.589
C  -1.4950263877  1.1320697486 -1.5888359886
C  -0.0513518224  1.1749798936 -1.5739798103
C   0.6181446311  0.0044916394 -1.4913404399
C  -2.1569899326 -0.0167867512 -1.5204189984
H  -1.9693219791  1.9750627168 -1.6798856549
H   0.4894346364  2.0964668602 -1.6650751472
H  -3.1314290141 -0.0406417708 -1.5630994991
N   2.1095680200 -0.0017742149 -1.4619498600
O   2.6054727947 -1.0657477272 -1.3862092212
O   2.6114550299  1.0838647709 -1.5230558082
C  -1.4945586193 -1.2009258365 -1.4237529159
H  -2.0178417472 -2.1395641127 -1.4160179674
C  -0.0201163370 -1.2143835258 -1.3980230701
H   0.5407806809 -2.1401400450 -1.3965132961
BR -0.6501183997  0.0169710494  2.3240479889
15
Step 20  E=-3010.1638235934  phi=139.617  theta=117.631
C  -1.4925808253  1.1319116040 -1.5870684083
C  -0.0515628611  1.1743574285 -1.5729718892
C   0.6217911768  0.0039633262 -1.4912573667
C  -2.1607289562 -0.0181281348 -1.5186162276
H  -1.9695435923  1.9658631321 -1.6787277986
H   0.4871192231  2.0918265910 -1.6659810128
H  -3.1270985436 -0.0363913931 -1.5631612410
N   2.1100979483 -0.0000919259 -1.4623314701
O   2.6042257095 -1.0676700454 -1.3871314246
O   2.6113619025  1.0849416221 -1.5226496918
C  -1.4929797016 -1.2007118484 -1.4220771037
H  -2.0198145380 -2.1326383846 -1.4182597238
C  -0.0197327930 -1.2136057823 -1.3968810500
H   0.5421878950 -2.1371661272 -1.4002937264
BR -0.6501183997  0.0169710494  2.3240479889
15
Step 21  E=-3010.1666418606  phi=139.540  theta=117.674
C  -1.4892643489  1.1311601689 -1.5851613413
C  -0.0520679881  1.1738112688 -1.5719433053
C   0.6255536292  0.0032810559 -1.4911129715
C  -2.1637121334 -0.0196394102 -1.5166677731
H  -1.9752158154  1.9674281713 -1.6786089268
H   0.4846944882  2.0876633777 -1.6668041894
H  -3.1344634762 -0.0321993843 -1.5636013575
N   2.1102904645  0.0016878389 -1.4627522831
O   2.6031384195 -1.0697903214 -1.3880876406
O   2.6114537207  1.0861598051 -1.5222238337
C  -1.4909416618 -1.2006392018 -1.4203290691
H  -2.0215211555 -2.1261544901 -1.4203025915
C  -0.0197186360 -1.2128251140 -1.3957369049
H   0.5433374344 -2.1341650272 -1.4038466626
BR -0.6501183997  0.0169710494  2.3240479889
15
Step 22  E=-3010.1730232157  phi=139.456  theta=117.716
C  -1.4852273756  1.1298908856 -1.5831277171
C  -0.0528385405  1.1732872343 -1.5708901201
C   0.6293718002  0.0024754935 -1.4909064854
C  -2.1659461730 -0.0212861349 -1.5145762433
H  -1.9853922184  1.9784816123 -1.6793816561
H   0.4824068142  2.0844724038 -1.6675794373
H  -3.1524040607 -0.0281687682 -1.5643539569
N   2.1101656015  0.0035025076 -1.4632078100
O   2.6022010387 -1.0720607847 -1.3890814847
O   2.6117372615  1.0875195680 -1.5217782281
C  -1.4884913367 -1.2006560254 -1.4185165232
H  -2.0230341537 -2.1206774458 -1.4221049272
C  -0.0200490143 -1.2120325163 -1.3945947272
H   0.5442565253 -2.1313283791 -1.4071335565
BR -0.6501183997  0.0169710494  2.3240479889
15
Step 23  E=-3010.1796800303  phi=139.368  theta=117.760
C  -1.4807342880  1.1283691440 -1.5810023991
C  -0.0538252648  1.1727347623 -1.5698084537
C   0.6331817537  0.0015814904 -1.4906379444
C  -2.1676603882 -0.0230388942 -1.5123557255
H  -1.9978731793  1.9956214087 -1.6806473330
H   0.4804399194  2.0826291673 -1.6683319721
H  -3.1772669103 -0.0244078440 -1.5652153537
N   2.1097518385  0.0052890136 -1.4636931378
O   2.6014005586 -1.0744294577 -1.3901168920
O   2.6122156648  1.0890168133 -1.5213127519
C  -1.4856828765 -1.2007215779 -1.4166466783
H  -2.0243737946 -2.1166642202 -1.4236297082
C  -0.0206891925 -1.2112217833 -1.3934580696
H   0.5449594194 -2.1288241866 -1.4101197557
BR -0.6501183997  0.0169710494  2.3240479889
15
Step 24  E=-3010.1842603841  phi=139.277  theta=117.803
C  -1.4760984961  1.1269317287 -1.5788291655
C  -0.0549598590  1.1721152818 -1.5686955502
C   0.6369175055  0.0006362966 -1.4903079978
C  -2.1691889262 -0.0248663126 -1.5100270841
H  -2.0099684502  2.0146368336 -1.6819017055
H   0.4788816905  2.0823279932 -1.6690702890
H  -3.2042226444 -0.0210568133 -1.5659048694
N   2.1090851787  0.0069871092 -1.4642031615
O   2.6007217421 -1.0768422783 -1.3911979565
O   2.6128882585  1.0906425446 -1.5208271417
C  -1.4825805846 -1.2008101965 -1.4147262954
H  -2.0254825111 -2.1144038103 -1.4248438837
C  -0.0215950505 -1.2103905692 -1.3923300105
H   0.5454395735 -2.1267799599 -1.4127743855
BR -0.6501183997  0.0169710494  2.3240479889
15
Step 25  E=-3010.1864101331  phi=139.187  theta=117.845
C  -1.4716216142  1.1258817648 -1.5766484595
C  -0.0561590795  1.1714081342 -1.5675505943
C   0.6405127467 -0.0003221518 -1.4899177078
C  -2.1708516772 -0.0267315408 -1.5076120539
H  -2.0192030439  2.0316630854 -1.6826718249
H   0.4777090367  2.0835502632 -1.6697818489
H  -3.2286212115 -0.0182828175 -1.5661380735
N   2.1082080690  0.0085422732 -1.4647327945
O   2.6001479700 -1.0792450811 -1.3923287833
O   2.6137505044  1.0923825241 -1.5203209835
C  -1.4792613358 -1.2009121238 -1.4127619094
H  -2.0262133632 -2.1139854209 -1.4257171977
C  -0.0227141809 -1.2095408576 -1.3912132269
H   0.5456655531 -2.1252718223 -1.4150700260
BR -0.6501183997  0.0169710494  2.3240479889
15
Step 26  E=-3010.1870350991  phi=139.099  theta=117.886
C  -1.4675574325  1.1254321827 -1.5744902769
C  -0.0573306704  1.1706122818 -1.5663750164
C   0.6439025814 -0.0012567452 -1.4894683815
C  -2.1728819890 -0.0285926492 -1.5051289562
H  -2.0237152276  2.0437958171 -1.6825950823
H   0.4767954996  2.0860704451 -1.6704328459
H  -3.2468089560 -0.0162559237 -1.5656789210
N   2.1071681575  0.0099080077 -1.4652771440
O   2.5996620189 -1.0815853383 -1.3935133612
O   2.6147940794  1.0942171981 -1.5197937136
C  -1.4758146798 -1.2010313777 -1.4107600381
H  -2.0263367302 -2.1153018572 -1.4262210570
C  -0.0239876085 -1.2086787978 -1.3901100768
H   0.5455816738 -2.1243210310 -1.4169823458
BR -0.6501183997  0.0169710494  2.3240479889
15
Step 27  E=-3010.1871879762  phi=139.017  theta=117.925
C  -1.4640969084  1.1256887639 -1.5723715602
C  -0.0583804154  1.1697437123 -1.5651722638
C   0.6470252639 -0.0021323164 -1.4889614517
C  -2.1753998114 -0.0304052490 -1.5025905668
H  -2.0223922425  2.0492773415 -1.6814480707
H   0.4759395051  2.0894979417 -1.6709721558
H  -3.2564359747 -0.0151240298 -1.5643654252
N   2.1060169084  0.0110474601 -1.4658316481
O   2.5992467485 -1.0838136214 -1.3947554558
O   2.6160070915  1.0961219036 -1.5192446345
C  -1.4723400876 -1.2011813259 -1.4087272619
H  -2.0255650482 -2.1180852811 -1.4263279729
C  -0.0253521517 -1.2078140035 -1.3890226432
H   0.5451135244 -2.1238981953 -1.4184899195
BR -0.6501183997  0.0169710494  2.3240479889
15
Step 28  E=-3010.1873657983  phi=138.941  theta=117.963
C  -1.4613629759  1.1266512256 -1.5702958272
C  -0.0592196677  1.1688299576 -1.5639471744
C   0.6498239152 -0.0029165752 -1.4883983929
C  -2.1784088321 -0.0321255209 -1.5000033615
H  -2.0148827763  2.0474961903 -1.6791512218
H   0.4749055225  2.0933437883 -1.6713384919
H  -3.2565018275 -0.0149946703 -1.5621187857
N   2.1048080965  0.0119343400 -1.4663921735
O   2.5988856918 -1.0858847584 -1.3960585271
O   2.6173744267  1.0980673560 -1.5186729420
C  -1.4689419864 -1.2013791111 -1.4066701308
H  -2.0235908655 -2.1219644309 -1.4260119549
C  -0.0267432159 -1.2069583665 -1.3879527584
H   0.5441775050 -2.1239340590 -1.4195742868
BR -0.6501183997  0.0169710494  2.3240479889
15
Step 29  E=-3010.1872744587  phi=138.873  theta=118.000
C  -1.4594072620  1.1282171019 -1.5682533450
C  -0.0597725043  1.1679035497 -1.5627051781
C   0.6522482043 -0.0035808849 -1.4877806598
C  -2.1817997963 -0.0337127607 -1.4973672790
H  -2.0015865942  2.0389658577 -1.6757683632
H   0.4734682987  2.0970970362 -1.6714690896
H  -3.2473406635 -0.0159239183 -1.5589462862
N   2.1035962259  0.0125532132 -1.4669550798
O   2.5985635466 -1.0877587150 -1.3974256653
O   2.6188782143  1.1000203811 -1.5180777640
C  -1.4657237694 -1.2016401403 -1.4045949374
H  -2.0201306866 -2.1265293871 -1.4252497968
C  -0.0280978005 -1.2061245845 -1.3869019709
H   0.5426929581 -2.1243348598 -1.4202203141
BR -0.6501183997  0.0169710494  2.3240479889
15
Step 30  E=-3010.1859823141  phi=138.814  theta=118.035
C  -1.4582066176  1.1301830641 -1.5662212501
C  -0.0599815925  1.1669959225 -1.5614514760
C   0.6542559678 -0.0041011152 -1.4871096382
C  -2.1853525007 -0.0351310124 -1.4946755977
H  -1.9836542287  2.0253375940 -1.6715077537
H   0.4714517635  2.1002968890 -1.6713082301
H  -3.2306282531 -0.0179107729 -1.5549427058
N   2.1024349041  0.0128992371 -1.4675172517
O   2.5982665781 -1.0894012112 -1.3988595494
O   2.6204983912  1.1019448476 -1.5174582027
C  -1.4627817048 -1.2019736968 -1.4025074162
H  -2.0149667983 -2.1313916129 -1.4240229682
C  -0.0293574017 -1.2053245665 -1.3858714992
H   0.5405949414 -2.1249994649 -1.4204167058
BR -0.6501183997  0.0169710494  2.3240479889
15
Step 31  E=-3010.1825129976  phi=138.765  theta=118.069
C  -1.4576625695  1.1322479022 -1.5641641415
C  -0.0598118992  1.1661324580 -1.5601903287
C   0.6558147253 -0.0044583580 -1.4863866242
C  -2.1887394036 -0.0363499095 -1.4919150731
H  -1.9629647421  2.0093984137 -1.6667188188
H   0.4687575495  2.1025910708 -1.6708142927
H  -3.2093763291 -0.0208974001 -1.5502882855
N   2.1013752283  0.0129775090 -1.4680761096
O   2.5979829422 -1.0907841407 -1.4003624182
O   2.6222133365  1.1038027220 -1.5168133799
C  -1.4601992994 -1.2023802427 -1.4004124155
H  -2.0079811269 -2.1362315799 -1.4223195777
C  -0.0304706169 -1.2045680314 -1.3848621210
H   0.5378459102 -2.1258357850 -1.4201566368
BR -0.6501183997  0.0169710494  2.3240479889
15
Step 32  E=-3010.1768838212  phi=138.726  theta=118.103
C  -1.4576119679  1.1340311781 -1.5620367359
C  -0.0592516533  1.1653287584 -1.5589244447
C   0.6569030037 -0.0046395117 -1.4856128449
C  -2.1915443123 -0.0373449386 -1.4890670751
H  -1.9419863382  1.9948965456 -1.6618660376
H   0.4653815443  2.1037757405 -1.6699646050
H  -3.1877607080 -0.0247786128 -1.5452343089
N   2.1004642195  0.0128021356 -1.4686295983
O   2.5977029487 -1.0918858283 -1.4019360547
O   2.6240005482  1.1055551848 -1.5161424804
C  -1.4580420721 -1.2028506378 -1.3983135793
H  -1.9991775311 -2.1408308240 -1.4201359569
C  -0.0313952565 -1.2038615033 -1.3838740618
H   0.5344447450 -2.1267741135 -1.4194383098
BR -0.6501183997  0.0169710494  2.3240479889
15
Step 33  E=-3010.1710032026  phi=138.696  theta=118.137
C  -1.4578592114  1.1351282623 -1.5597908626
C  -0.0583105179  1.1645879514 -1.5576544856
C   0.6575113989 -0.0046375601 -1.4847895332
C  -2.1933174306 -0.0380975793 -1.4861108399
H  -1.9233922406  1.9859583158 -1.6574535169
H   0.4614191528  2.1038154960 -1.6687577699
H  -3.1705384186 -0.0294241794 -1.5400629822
N   2.0997433721  0.0123951519 -1.4691761596
O   2.5974192792 -1.0926911699 -1.4035817807
O   2.6258373290  1.1071637392 -1.5154447937
C  -1.4563525301 -1.2033672029 -1.3962130203
H  -1.9886908736 -2.1450883954 -1.4174774982
C  -0.0320998659 -1.2032078951 -1.3829068784
H   0.5304321516 -2.1277758207 -1.4182653359
BR -0.6501183997  0.0169710494  2.3240479889
15
Step 34  E=-3010.1680716493  phi=138.675  theta=118.172
C  -1.4582321373  1.1352120322 -1.5573876177
C  -0.0570157635  1.1638992648 -1.5563787602
C   0.6576432825 -0.0044514771 -1.4839180461
C  -2.1936800673 -0.0385962266 -1.4830293172
H  -1.9093964585  1.9859732113 -1.6538895100
H   0.4570604355  2.1028432125 -1.6672134002
H  -3.1618943280 -0.0347088437 -1.5350158196
N   2.0992473702  0.0117853935 -1.4697146912
O   2.5971271748 -1.0931916832 -1.4053004596
O   2.6277014551  1.1085912582 -1.5147197490
C  -1.4551456183 -1.2039063076 -1.3941110197
H  -1.9767825126 -2.1490224854 -1.4143585349
C  -0.0325646173 -1.2026067560 -1.3819593652
H   0.5258918371 -2.1288364085 -1.4166468703
BR -0.6501183997  0.0169710494  2.3240479889
15
Step 35  E=-3010.1700477811  phi=138.662  theta=118.207
C  -1.4586406788  1.1341505763 -1.5548107273
C  -0.0554079661  1.1632387678 -1.5550932540
C   0.6573150778 -0.0040859427 -1.4829999788
C  -2.1924533429 -0.0388388847 -1.4798157820
H  -1.9010490472  1.9962861215 -1.6513352678
H   0.4525755305  2.1011397778 -1.6653693708
H  -3.1639985125 -0.0405293337 -1.5302124376
N   2.0990030457  0.0110073761 -1.4702444940
O   2.5968245823 -1.0933854789 -1.4070925066
O   2.6295717983  1.1098029367 -1.5139669467
C  -1.4544059133 -1.2044419272 -1.3920058248
H  -1.9638230378 -2.1527573869 -1.4108013422
C  -0.0327814873 -1.2020550519 -1.3810295016
H   0.5209473021 -2.1299827116 -1.4145974506
BR -0.6501183997  0.0169710494  2.3240479889
15
Step 36  E=-3010.1756903299  phi=138.656  theta=118.243
C  -1.4590998971  1.1320679413 -1.5520727380
C  -0.0535376652  1.1625732505 -1.5537920987
C   0.6565560128 -0.0035513082 -1.4820372024
C  -2.1897374851 -0.0388373303 -1.4764770479
H  -1.8979510313  2.0155222982 -1.6496348883
H   0.4482899664  2.0990941079 -1.6632768050
H  -3.1761059286 -0.0467879073 -1.5256097357
N   2.0990286484  0.0101001759 -1.4707652115
O   2.5965122349 -1.0932771354 -1.4089579119
O   2.6314288820  1.1107671458 -1.5131861797
C  -1.4540882964 -1.2049494894 -1.3898936521
H  -1.9502641282 -2.1564952582 -1.4068345777
C  -0.0327536051 -1.2015481672 -1.3801144803
H   0.5157544288 -2.1312646438 -1.4121364574
BR -0.6501183997  0.0169710494  2.3240479889
15
Step 37  E=-3010.1817762066  phi=138.655  theta=118.279
C  -1.4596999588  1.1292995778 -1.5492091309
C  -0.0514631943  1.1618671728 -1.5524684496
C   0.6554073048 -0.0028637830 -1.4810318050
C  -2.1858811119 -0.0386202419 -1.4730305863
H  -1.8986093238  2.0400932446 -1.6483831636
H   0.4445501511  2.0971453082 -1.6609931678
H  -3.1948892925 -0.0533536758 -1.5210340559
N   2.0993334608  0.0091063452 -1.4712767679
O   2.5961936491 -1.0928774888 -1.4108962707
O   2.6332553586  1.1114561701 -1.5123774464
C  -1.4541230742 -1.2054093709 -1.3877689807
H  -1.9366023160 -2.1604733567 -1.4024914448
C  -0.0324938939 -1.2010809955 -1.3792107874
H   0.5104905538 -2.1327425589 -1.4092873455
BR -0.6501183997  0.0169710494  2.3240479889
15
Step 38  E=-3010.1858614513  phi=138.658  theta=118.316
C  -1.4605493874  1.1262772942 -1.5462650156
C  -0.0492488623  1.1610913842 -1.5511155740
C   0.6539208514 -0.0020457439 -1.4799859607
C  -2.1813637177 -0.0382320206 -1.4694977493
H  -1.9011309775  2.0654792299 -1.6470775041
H   0.4416821962  2.0957124416 -1.6585741652
H  -3.2157372221 -0.0600384658 -1.5162606073
N   2.0999177533  0.0080708336 -1.4717793031
O   2.5958750375 -1.0922033341 -1.4129068245
O   2.6350364044  1.1118468333 -1.5115409556
C  -1.4544245378 -1.2058098938 -1.3856250611
H  -1.9233385031 -2.1649110105 -1.3978078412
C  -0.0320231637 -1.2006490524 -1.3783143366
H   0.5053413382 -2.1344718553 -1.4060767362
BR -0.6501183997  0.0169710494  2.3240479889
15
Step 39  E=-3010.1874989411  phi=138.662  theta=118.352
C  -1.4617294318  1.1234183972 -1.5432829185
C  -0.0469625708  1.1602314861 -1.5497278996
C   0.6521575393 -0.0011256191 -1.4789017915
C  -2.1766698496 -0.0377274380 -1.4658975812
H  -1.9038051314  2.0874392323 -1.6452553853
H   0.4399505839  2.0951218076 -1.6560655761
H  -3.2341236413 -0.0666055330 -1.5110868061
N   2.1007730401  0.0070399216 -1.4722731016
O   2.5955651626 -1.0912770477 -1.4149885070
O   2.6367600264  1.1119210070 -1.5106771278
C  -1.4549005944 -1.2061497253 -1.3834545067
H  -1.9109381310 -2.1699547342 -1.3928206561
C  -0.0313680148 -1.2002497142 -1.3774205906
H   0.5004872294 -2.1364870017 -1.4025336306
BR -0.6501183997  0.0169710494  2.3240479889
15
Step 40  E=-3010.1875945576  phi=138.665  theta=118.389
C  -1.4632737995  1.1210593691 -1.5402958313
C  -0.0446729000  1.1592939324 -1.5483017989
C   0.6501852380 -0.0001372059 -1.4777812716
C  -2.1722072772 -0.0371648895 -1.4622435449
H  -1.9053925907  2.1027036959 -1.6425698507
H   0.4395249438  2.0955456343 -1.6534966034
H  -3.2464655522 -0.0727981581 -1.5053717448
N   2.1018825941  0.0060601046 -1.4727585165
O   2.5952751370 -1.0901261099 -1.4171399962
O   2.6384172791  1.1116660257 -1.5097865941
C  -1.4554611130 -1.2064393844 -1.3812498077
H  -1.8997976652 -2.1756326083 -1.3875664782
C  -0.0305587726 -1.1998834530 -1.3765246789