15
Step 0  E=-3010.2002864683  phi=37.318  theta=72.741
C  -1.4691943295  1.1786432706 -1.6104643421
C  -0.0811262995  1.1968315809 -1.5863300149
C   0.5940442172 -0.0096245617 -1.4875893960
C  -2.1535329851 -0.0299583788 -1.5368020980
H  -2.0163051778  2.1108701552 -1.6872907030
H   0.4786290510  2.1202180313 -1.6419885033
H  -3.2336059793 -0.0375828350 -1.5562369856
N   2.0705158348  0.0014882793 -1.4612028742
O   2.6384676512 -1.0679572628 -1.3753079179
O   2.6250247434  1.0787820705 -1.5269714190
C  -1.4547897925 -1.2282318497 -1.4382182183
H  -1.9881296710 -2.1647677697 -1.3812735969
C  -0.0664008940 -1.2259544930 -1.4125185386
H   0.5045249605 -2.1409583102 -1.3363028630
BR -0.6501183997  0.0169710494  2.3240479889
15
Step 1  E=-3010.2004928867  phi=37.301  theta=72.740
C  -1.4699719769  1.1784765768 -1.6104283993
C  -0.0802539851  1.1967087584 -1.5863070404
C   0.5940644822 -0.0095695635 -1.4876195354
C  -2.1541699876 -0.0303831840 -1.5367280743
H  -2.0158239736  2.1101342876 -1.6874082147
H   0.4782771684  2.1190588436 -1.6422572841
H  -3.2217583565 -0.0367965183 -1.5560911797
N   2.0713060541  0.0020434909 -1.4612324581
O   2.6382248337 -1.0679900896 -1.3752829126
O   2.6244598501  1.0783319663 -1.5270034558
C  -1.4563042032 -1.2283872152 -1.4380146409
H  -1.9812741800 -2.1539901484 -1.3820707607
C  -0.0656131213 -1.2258807816 -1.4123306797
H   0.5041914156 -2.1398365592 -1.3367450244
BR -0.6501183997  0.0169710494  2.3240479889
15
Step 2  E=-3010.1998439818  phi=37.273  theta=72.738
C  -1.4712317130  1.1781872113 -1.6103672227
C  -0.0788357380  1.1964899771 -1.5862693188
C   0.5941075867 -0.0094667626 -1.4876689983
C  -2.1550786210 -0.0310899843 -1.5366011829
H  -2.0151151831  2.1090340814 -1.6876134673
H   0.4778047797  2.1173045220 -1.6427115840
H  -3.2039065667 -0.0355472452 -1.5558879192
N   2.0726037763  0.0029494176 -1.4612811023
O   2.6378237663 -1.0680447722 -1.3752411225
O   2.6235312349  1.0775982921 -1.5270577617
C  -1.4587027440 -1.2284961714 -1.4376850718
H  -1.9709399445 -2.1378036961 -1.3832910324
C  -0.0643490808 -1.2257494184 -1.4120178017
H   0.5037510629 -2.1381501245 -1.3374625926
BR -0.6501183997  0.0169710494  2.3240479889
15
Step 3  E=-3010.1974689510  phi=37.237  theta=72.735
C  -1.4729224511  1.1777593513 -1.6102790750
C  -0.0769238855  1.1961579456 -1.5862177119
C   0.5941872046 -0.0093047731 -1.4877364499
C  -2.1560343585 -0.0320728480 -1.5364165259
H  -2.0143067299  2.1077378894 -1.6879189750
H   0.4773673095  2.1151978514 -1.6433602356
H  -3.1828455585 -0.0339187910 -1.5556858042
N   2.0743801366  0.0041758919 -1.4613477098
O   2.6372698281 -1.0681208630 -1.3751824081
O   2.6222582690  1.0766062397 -1.5271357262
C  -1.4617998847 -1.2283382020 -1.4372433007
H  -1.9587376887 -2.1188546575 -1.3847743719
C  -0.0626760417 -1.2255479614 -1.4115807314
H   0.5033587414 -2.1361476614 -1.3384284381
BR -0.6501183997  0.0169710494  2.3240479889
15
Step 4  E=-3010.1933435857  phi=37.194  theta=72.730
C  -1.4749779737  1.1771745736 -1.6101618279
C  -0.0745881538  1.1956946220 -1.5861534837
C   0.5943218561 -0.0090743041 -1.4878198272
C  -2.1567457467 -0.0333184637 -1.5361680743
H  -2.0135549774  2.1064424307 -1.6883393492
H   0.4771518738  2.1130321622 -1.6442138756
H  -3.1622467568 -0.0320113189 -1.5555621423
N   2.0765950171  0.0056796532 -1.4614306228
O   2.6365704700 -1.0682172990 -1.3751066119
O   2.6206680733  1.0753915218 -1.5272393182
C  -1.4653503877 -1.2276266257 -1.4367066284
H  -1.9467770358 -2.1006490671 -1.3863111855
C  -0.0606774722 -1.2252604551 -1.4110211183
H   0.5031966476 -2.1341275597 -1.3396084974
BR -0.6501183997  0.0169710494  2.3240479889
15
Step 5  E=-3010.1889238398  phi=37.146  theta=72.725
C  -1.4773199820  1.1764160740 -1.6100132487
C  -0.0719110546  1.1950854758 -1.5860784097
C   0.5945343152 -0.0087701964 -1.4879163475
C  -2.1569035123 -0.0348041225 -1.5358498244
H  -2.0130244969  2.1053402782 -1.6888888575
H   0.4773497921  2.1111084924 -1.6452829138
H  -3.1461117327 -0.0299253959 -1.5556023905
N   2.0791975131  0.0074045994 -1.4615275983
O   2.6357351827 -1.0683324075 -1.3750135619
O   2.6187953258  1.0740002365 -1.5273710835
C  -1.4690805909 -1.2260594131 -1.4360926328
H  -1.9373341803 -2.0870112920 -1.3876762018
C  -0.0584445669 -1.2248694159 -1.4103413424
H   0.5034450918 -2.1323938975 -1.3409655153
BR -0.6501183997  0.0169710494  2.3240479889
15
Step 6  E=-3010.1866099131  phi=37.095  theta=72.718
C  -1.4798607868  1.1754734019 -1.6098313579
C  -0.0689822686  1.1943236786 -1.5859949089
C   0.5948508121 -0.0083922199 -1.4880225851
C  -2.1562637934 -0.0364951457 -1.5354576736
H  -2.0128658821  2.1045864604 -1.6895787621
H   0.4781266783  2.1096883590 -1.6465749447
H  -3.1378316750 -0.0277497928 -1.5558810865
N   2.0821267058  0.0092827672 -1.4616358331
O   2.6347754625 -1.0684640897 -1.3749030656
O   2.6166818389  1.0724883243 -1.5275341216
C  -1.4727394042 -1.2234081702 -1.4354140509
H  -1.9322891866 -2.0811073631 -1.3886853675
C  -0.0560675143 -1.2243580629 -1.4095442099
H   0.5042520993 -2.1312086034 -1.3424629212
BR -0.6501183997  0.0169710494  2.3240479889
15
Step 7  E=-3010.1878644619  phi=37.045  theta=72.710
C  -1.4825061141  1.1743466326 -1.6096148047
C  -0.0658929495  1.1934136644 -1.5859061741
C   0.5953000157 -0.0079451115 -1.4881345873
C  -2.1547421734 -0.0383412019 -1.5349916996
H  -2.0131949811  2.1042694969 -1.6904148171
H   0.4795948999  2.1089499249 -1.6480920902
H  -3.1391127479 -0.0255629953 -1.5564378175
N   2.0853128015  0.0112360133 -1.4617520329
O   2.6337047647 -1.0686101238 -1.3747748941
O   2.6143758442  1.0709205525 -1.5277320387
C  -1.4761525698 -1.2196188367 -1.4346735025
H  -1.9325163239 -2.0843257471 -1.3892550823
C  -0.0536280399 -1.2237126733 -1.4086325778
H   0.5057065553 -2.1307474572 -1.3440681491
BR -0.6501183997  0.0169710494  2.3240479889
15
Step 8  E=-3010.1917958532  phi=36.997  theta=72.700
C  -1.4851586220  1.1730489703 -1.6093631804
C  -0.0627307603  1.1923733307 -1.5858162729
C   0.5959117778 -0.0074380808 -1.4882479883
C  -2.1524673064 -0.0402730856 -1.5344578067
H  -2.0140771767  2.1043918446 -1.6913952731
H   0.4817934233  2.1089561040 -1.6498287462
H  -3.1493507280 -0.0234491824 -1.5572594003
N   2.0886786982  0.0131784072 -1.4618725253
O   2.6325384311 -1.0687685404 -1.3746287646
O   2.6119309253  1.0693689400 -1.5279688689
C  -1.4792491793 -1.2148649602 -1.4338613818
H  -1.9375927336 -2.0956809450 -1.3894254599
C  -0.0511948345 -1.2229251198 -1.4076090492
H   0.5078194497 -2.1310683321 -1.3457546372
BR -0.6501183997  0.0169710494  2.3240479889
15
Step 9  E=-3010.1959856782  phi=36.955  theta=72.688
C  -1.4877223491  1.1716070686 -1.6090771785
C  -0.0595762214  1.1912342829 -1.5857301612
C   0.5967156451 -0.0068840217 -1.4883581098
C  -2.1497559887 -0.0422028373 -1.5338676812
H  -2.0155195683  2.1048636695 -1.6925098260
H   0.4846791404  2.1096417291 -1.6517703633
H  -3.1658898524 -0.0215136525 -1.5582797331
N   2.0921420030  0.0150193508 -1.4619934164
O   2.6312935818 -1.0689380269 -1.3744643172
O   2.6094045610  1.0679105505 -1.5282489579
C  -1.4820431372 -1.2095130245 -1.4329586197
H  -1.9460385856 -2.1121930220 -1.3893287559
C  -0.0488224311 -1.2219952132 -1.4064758451
H   0.5105168391 -2.1320986181 -1.3475021945
BR -0.6501183997  0.0169710494  2.3240479889
15
Step 10  E=-3010.1985049661  phi=36.921  theta=72.675
C  -1.4901075054  1.1700590219 -1.6087585942
C  -0.0565005884  1.1900399122 -1.5856535855
C   0.5977392263 -0.0062985656 -1.4884600402
C  -2.1470258347 -0.0440289158 -1.5332369699
H  -2.0174720686  2.1055117018 -1.6937397358
H   0.4881314036  2.1108228336 -1.6538935379
H  -3.1849770958 -0.0198815738 -1.5593976094
N   2.0956174668  0.0166674426 -1.4621107924
O   2.6299889718 -1.0691183356 -1.3742810937
O   2.6068562842  1.0666246064 -1.5285768044
C  -1.4845866942 -1.2040242418 -1.4319422918
H  -1.9558977016 -2.1299547920 -1.3891275138
C  -0.0465527903 -1.2209320506 -1.4052348651
H   0.5136462854 -2.1336447623 -1.3492956490
BR -0.6501183997  0.0169710494  2.3240479889
15
Step 11  E=-3010.1989452082  phi=36.896  theta=72.659
C  -1.4922346320  1.1684505318 -1.6084101715
C  -0.0535651058  1.1888415887 -1.5855928390
C   0.5990065430 -0.0056991442 -1.4885487153
C  -2.1446976885 -0.0456451705 -1.5325826316
H  -2.0198364479  2.1061022355 -1.6950592199
H   0.4919686279  2.1122261179 -1.6561675523
H  -3.2028145041 -0.0186805450 -1.5605016603
N   2.0990197525  0.0180350329 -1.4622209626
O   2.6286448140 -1.0693106736 -1.3740785169
O   2.6043455124  1.0655889641 -1.5289568615
C  -1.4869276476 -1.1988528085 -1.4307907033
H  -1.9652896113 -2.1452030675 -1.3889617362
C  -0.0444181883 -1.2197535735 -1.4038879077
H   0.5169959642 -2.1354219506 -1.3511222685
BR -0.6501183997  0.0169710494  2.3240479889
15
Step 12  E=-3010.1980548853  phi=36.884  theta=72.641
C  -1.4940373318  1.1668300689 -1.6080353609
C  -0.0508213007  1.1876936113 -1.5855544141
C   0.6005364834 -0.0051040919 -1.4886190061
C  -2.1431259130 -0.0469508550 -1.5319204768
H  -2.0224808820  2.1063743424 -1.6964379072
H   0.4959732110  2.1135322519 -1.6585570860
H  -3.2162813237 -0.0180194733 -1.5614914729
N   2.1022664037  0.0190433010 -1.4623207378
O   2.6272825712 -1.0695180578 -1.3738558725
O   2.6019291560  1.0648760833 -1.5293933033
C  -1.4890865847 -1.1943779027 -1.4294863477
H  -1.9727357609 -2.1549848388 -1.3889226440
C  -0.0424442735 -1.2184842032 -1.4024369533
H   0.5203227654 -2.1370975564 -1.3529686452
BR -0.6501183997  0.0169710494  2.3240479889
15
Step 13  E=-3010.1968754777  phi=36.885  theta=72.621
C  -1.4954634825  1.1652438703 -1.6076380134
C  -0.0483118482  1.1866477179 -1.5855445810
C   0.6023414387 -0.0045317698 -1.4886658205
C  -2.1425624102 -0.0478596927 -1.5312633240
H  -2.0252570590  2.1060774956 -1.6978439839
H   0.4999197953  2.1144245911 -1.6610256623
H  -3.2232718307 -0.0179734346 -1.5622909738
N   2.1052808359  0.0196275207 -1.4624077277
O   2.6259247189 -1.0697456096 -1.3736122946
O   2.5996591660  1.0645487541 -1.5298897694
C  -1.4910516235 -1.1908703799 -1.4280171101
H  -1.9772815403 -2.1574275208 -1.3890475590
C  -0.0406527221 -1.2171512126 -1.4008844380
H   0.5233838559 -2.1383399253 -1.3548178134
BR -0.6501183997  0.0169710494  2.3240479889
15
Step 14  E=-3010.1960687008  phi=36.901  theta=72.598
C  -1.4964753581  1.1637314871 -1.6072220774
C  -0.0460716274  1.1857479311 -1.5855689649
C   0.6044262014 -0.0039997067 -1.4886842063
C  -2.1431425043 -0.0483071995 -1.5306197169
H  -2.0280171817  2.1050075131 -1.6992475140
H   0.5036021862  2.1146353142 -1.6635392812
H  -3.2227945691 -0.0185760398 -1.5628557184
N   2.1079951449  0.0197420234 -1.4624806302
O   2.6245944721 -1.0700007549 -1.3733467593
O   2.5975802251  1.0646559662 -1.5304491099
C  -1.4927814284 -1.1884793947 -1.4263766064
H  -1.9785151907 -2.1517964262 -1.3893242386
C  -0.0390632790 -1.2157808505 -1.3992334453
H   0.5259661957 -2.1388645413 -1.3566471381
BR -0.6501183997  0.0169710494  2.3240479889
15
Step 15  E=-3010.1956049067  phi=36.932  theta=72.572
C  -1.4970492121  1.1623224545 -1.6067913230
C  -0.0441286490  1.1850263340 -1.5856321604
C   0.6067871734 -0.0035237315 -1.4886694531
C  -2.1448800140 -0.0482560688 -1.5299930068
H  -2.0306287774  2.1030358185 -1.7006235046
H   0.5068554328  2.1139828953 -1.6660697905
H  -3.2149841356 -0.0198165977 -1.5631772322
N   2.1103525152  0.0193643006 -1.4625394753
O   2.6233154694 -1.0702932963 -1.3730580859
O   2.5957278067  1.0652293643 -1.5310731584
C  -1.4942091832 -1.1872261926 -1.4245642826
H  -1.9765634077 -2.1384946904 -1.3896967156
C  -0.0376951755 -1.2143951245 -1.3974877938
H   0.5279099317 -2.1384716423 -1.3584272957
BR -0.6501183997  0.0169710494  2.3240479889
15
Step 16  E=-3010.1948028433  phi=36.976  theta=72.544
C  -1.4971747724  1.1610343683 -1.6063491411
C  -0.0425046898  1.1845001867 -1.5857374223
C   0.6094119093 -0.0031172424 -1.4886171841
C  -2.1476650845 -0.0476990474 -1.5293807032
H  -2.0329859069  2.1001287423 -1.7019543387
H   0.5095710576  2.1123972522 -1.6685976182
H  -3.2011031414 -0.0216398582 -1.5632864646
N   2.1123090344  0.0184976695 -1.4625857880
O   2.6221114055 -1.0706353031 -1.3727449518
O   2.5941268064  1.0662807422 -1.5317625615
C  -1.4952443160 -1.1870002230 -1.4225853994
H  -1.9720964006 -2.1190703417 -1.3900700856
C  -0.0365678081 -1.2130096727 -1.3956520192
H   0.5291234243 -2.1370717068 -1.3601223180
BR -0.6501183997  0.0169710494  2.3240479889
15
Step 17  E=-3010.1927532748  phi=37.034  theta=72.513
C  -1.4968546818  1.1598725638 -1.6058984525
C  -0.0412155514  1.1841705739 -1.5858864761
C   0.6122790266 -0.0027905447 -1.4885234416
C  -2.1512658453 -0.0466586430 -1.5287741625
H  -2.0350158959  2.0963552418 -1.7032313067
H   0.5117044673  2.1099307612 -1.6711135409
H  -3.1835254757 -0.0239489156 -1.5632561742
N   2.1138347874  0.0171721061 -1.4626226384
O   2.6210056063 -1.0710407992 -1.3724059246
O   2.5927908874  1.0678009059 -1.5325166891
C  -1.4957729640 -1.1875609999 -1.4204507129
H  -1.9663280796 -2.0961993436 -1.3903157186
C  -0.0357006294 -1.2116328239 -1.3937312360
H   0.5295892343 -2.1346972278 -1.3616905717
BR -0.6501183997  0.0169710494  2.3240479889
15
Step 18  E=-3010.1891261322  phi=37.104  theta=72.478
C  -1.4961038042  1.1588313205 -1.6054417369
C  -0.0402709018  1.1840227111 -1.5860794366
C   0.6153584642 -0.0025505435 -1.4883847655
C  -2.1553424125 -0.0451827591 -1.5281589251
H  -2.0366810310  2.0918827277 -1.7044551058
H   0.5132743372  2.1067545976 -1.6736193314
H  -3.1656049844 -0.0266142354 -1.5631990613
N   2.1149141848  0.0154430119 -1.4626545611
O   2.6200205425 -1.0715252031 -1.3720395126
O   2.5917225919  1.0697600784 -1.5333336388
C  -1.4956625355 -1.1885572667 -1.4181754200
H  -1.9609477627 -2.0735168919 -1.3902813337
C  -0.0351119492 -1.2102654562 -1.3917309466
H   0.5293613268 -2.1315002491 -1.3630863533
BR -0.6501183997  0.0169710494  2.3240479889
15
Step 19  E=-3010.1849774546  phi=37.182  theta=72.441
C  -1.4949479651  1.1578964991 -1.6049811947
C  -0.0396736982  1.1840278702 -1.5863148817
C   0.6186120941 -0.0024006784 -1.4881982695
C  -2.1594872954 -0.0433363672 -1.5275162016
H  -2.0379749624  2.0869617554 -1.7056352187
H   0.5143540455  2.1031405676 -1.6761270729
H  -3.1512655180 -0.0294912670 -1.5632554160
N   2.1155455850  0.0133880119 -1.4626873464
O   2.6191772877 -1.0721045251 -1.3716442353
O   2.5909141651  1.0721097840 -1.5342103347
C  -1.4947795286 -1.1895797440 -1.4157769573
H  -1.9578790754 -2.0551033203 -1.3898109962
C  -0.0348164821 -1.2089013288 -1.3896567791
H   0.5285542921 -2.1277359375 -1.3642618748
BR -0.6501183997  0.0169710494  2.3240479889
15
Step 20  E=-3010.1826019300  phi=37.265  theta=72.400
C  -1.4934220110  1.1570492607 -1.6045190287
C  -0.0394192355  1.1841468109 -1.5865900770
C   0.6219946684 -0.0023412325 -1.4879617082
C  -2.1633026880 -0.0411908433 -1.5268259696
H  -2.0389139964  2.0819011362 -1.7067881388
H   0.5150557406  2.0994295494 -1.6786570671
H  -3.1441827788 -0.0324427223 -1.5635640166
N   2.1157403527  0.0111020777 -1.4627277160
O   2.6184949283 -1.0727943190 -1.3712187158
O   2.5903489551  1.0747859555 -1.5351427062
C  -1.4930274829 -1.1902550198 -1.4132716520
H  -1.9587918183 -2.0445166982 -1.3887756915
C  -0.0348215831 -1.2075276839 -1.3875142157
H   0.5273255707 -2.1237330987 -1.3651692920
BR -0.6501183997  0.0169710494  2.3240479889
15
Step 21  E=-3010.1838681285  phi=37.352  theta=72.356
C  -1.4915674203  1.1562704077 -1.6040577547
C  -0.0394939152  1.1843343715 -1.5869013499
C   0.6254550524 -0.0023698319 -1.4876735232
C  -2.1665025267 -0.0388148762 -1.5260713581
H  -2.0395242844  2.0770358494 -1.7079345739
H   0.5155082959  2.0959890826 -1.6812344120
H  -3.1466815609 -0.0353521389 -1.5642183216
N   2.1155215435  0.0086915140 -1.4627829189
O   2.6179899438 -1.0736084391 -1.3707617876
O   2.5900031975  1.0777128487 -1.5361259232
C  -1.4903968399 -1.1903558698 -1.4106713015
H  -1.9644731486 -2.0436236456 -1.3871042536
C  -0.0351228873 -1.2061265251 -1.3853083520
H   0.5258519809 -2.1198538133 -1.3657626098
BR -0.6501183997  0.0169710494  2.3240479889
15
Step 22  E=-3010.1884374832  phi=37.437  theta=72.310
C  -1.4894302914  1.1555445437 -1.6036004783
C  -0.0398740163  1.1845446670 -1.5872445916
C   0.6289376555 -0.0024820151 -1.4873328440
C  -2.1689936253 -0.0362706228 -1.5252426374
H  -2.0398268888  2.0726910095 -1.7090958555
H   0.5158315745  2.0931648683 -1.6838845479
H  -3.1588599944 -0.0381157020 -1.5652259332
N   2.1149224282  0.0062673883 -1.4628602834
O   2.6176755810 -1.0745576656 -1.3702726144
O   2.5898479603  1.0808073039 -1.5371546583
C  -1.4869978536 -1.1898681004 -1.4079814071
H  -1.9744072206 -2.0518926694 -1.3847966188
C  -0.0357006324 -1.2046771780 -1.3830437334
H   0.5243026743 -2.1164462957 -1.3659992541
BR -0.6501183997  0.0169710494  2.3240479889
15
Step 23  E=-3010.1940360135  phi=37.518  theta=72.260
C  -1.4870605191  1.1548631726 -1.6031510554
C  -0.0405248275  1.1847361448 -1.5876158152
C   0.6323839395 -0.0026716907 -1.4869394382
C  -2.1708847979 -0.0336154927 -1.5243385579
H  -2.0398233354  2.0691462259 -1.7102900655
H   0.5161106900  2.0912330518 -1.6866283696
H  -3.1785215777 -0.0406182052 -1.5664965857
N   2.1139850146  0.0039390284 -1.4629667692
O   2.6175612574 -1.0756483096 -1.3697508103
O   2.5898510492  1.0839829176 -1.5382233486
C  -1.4830496677 -1.1889678371 -1.4052020080
H  -1.9868835046 -2.0666732923 -1.3819103503
C  -0.0365180206 -1.2031603463 -1.3807242862
H   0.5228120553 -2.1137972137 -1.3658412254
BR -0.6501183997  0.0169710494  2.3240479889
15
Step 24  E=-3010.1984132900  phi=37.591  theta=72.208
C  -1.4845123311  1.1542261195 -1.6027141265
C  -0.0414005287  1.1848757398 -1.5880116725
C   0.6357339386 -0.0029315128 -1.4864936130
C  -2.1724193810 -0.0309059881 -1.5233643460
H  -2.0394844784  2.0666058685 -1.7115285440
H   0.5163751189  2.0903615690 -1.6894777556
H  -3.2019671550 -0.0427166703 -1.5678669512
N   2.1127586376  0.0018081118 -1.4631085553
O   2.6176520449 -1.0768809289 -1.3691965531
O   2.5899787229  1.0871538082 -1.5393264393
C  -1.4788314572 -1.1879296136 -1.4023301738
H  -1.9995592273 -2.0842362826 -1.3785314615
C  -0.0375221382 -1.2015628676 -1.3783533445
H   0.5214576772 -2.1120914493 -1.3652557601
BR -0.6501183997  0.0169710494  2.3240479889
15
Step 25  E=-3010.2007173030  phi=37.654  theta=72.153
C  -1.4818453776  1.1536411826 -1.6022950360
C  -0.0424451434  1.1849414816 -1.5884298459
C   0.6389277923 -0.0032531532 -1.4859960948
C  -2.1738781885 -0.0281998101 -1.5223279281
H  -2.0387449805  2.0651804253 -1.7128134956
H   0.5165873732  2.0905879782 -1.6924324166
H  -3.2251096601 -0.0442466274 -1.5691449742
N   2.1112986087 -0.0000362363 -1.4632906983
O   2.6179482900 -1.0782492993 -1.3686106760
O   2.5901971452  1.0902377777 -1.5404585925
C  -1.4746269113 -1.1870277933 -1.3993624604
H  -2.0100985767 -2.1008746794 -1.3747477499
C  -0.0386470456 -1.1998816982 -1.3759337069
H   0.5202481592 -2.1113870806 -1.3642155911
BR -0.6501183997  0.0169710494  2.3240479889
15
Step 26  E=-3010.2013888587  phi=37.705  theta=72.096
C  -1.4791252181  1.1531223144 -1.6018996428
C  -0.0435947424  1.1849232109 -1.5888692408
C   0.6419072920 -0.0036276324 -1.4854479084
C  -2.1755020166 -0.0255550385 -1.5212365084
H  -2.0375048299  2.0648821472 -1.7141371508
H   0.5166442841  2.0918181915 -1.6954787752
H  -3.2443558594 -0.0450445846 -1.5701502362
N   2.1096648589 -0.0015211090 -1.4635168759
O   2.6184454239 -1.0797397578 -1.3679947304
O   2.5904735615  1.0931587985 -1.5416148569
C  -1.4706854468 -1.1864731672 -1.3962963954
H  -2.0166063871 -2.1136050491 -1.3706334480
C  -0.0398182329 -1.1981257302 -1.3734677136
H   0.5191241906 -2.1116106471 -1.3626988934
BR -0.6501183997  0.0169710494  2.3240479889
15
Step 27  E=-3010.2013416985  phi=37.741  theta=72.036
C  -1.4764223508  1.1526868820 -1.6015340349
C  -0.0447808136  1.1848213973 -1.5893299848
C   0.6446174411 -0.0040455474 -1.4848502776
C  -2.1774503346 -0.0230275496 -1.5200944908
H  -2.0356382023  2.0656350486 -1.7154826224
H   0.5163910502  2.0938459763 -1.6985911245
H  -3.2570750983 -0.0449724768 -1.5707394319
N   2.1079205175 -0.0025921393 -1.4637892305
O   2.6191339977 -1.0813310175 -1.3673510091
O   2.5907772196  1.0958488279 -1.5427907939
C  -1.4672029956 -1.1863871371 -1.3931310555
H  -2.0178221960 -2.1204524680 -1.3662432994
C  -0.0409578820 -1.1963150608 -1.3709572778
H   0.5179724732 -2.1125735481 -1.3606891337
BR -0.6501183997  0.0169710494  2.3240479889
15
Step 28  E=-3010.2012475976  phi=37.762  theta=71.974
C  -1.4738098419  1.1523525340 -1.6012041475
C  -0.0459344396  1.1846444744 -1.5898132142
C   0.6470080130 -0.0044972833 -1.4842045510
C  -2.1797872880 -0.0206680518 -1.5189025880
H  -2.0330085903  2.0672961057 -1.7168262458
H   0.5156452219  2.0963886604 -1.7017348507
H  -3.2617626123 -0.0439358274 -1.5708187467
N   2.1061303813 -0.0032145604 -1.4641083067
O   2.6199999565 -1.0829944718 -1.3666825269
O   2.5910800742  1.0982490326 -1.5439825658
C  -1.4643144613 -1.1867974205 -1.3898671944
H  -2.0131702447 -2.1205037999 -1.3616107311
C  -0.0419904665 -1.1944781866 -1.3684039244
H   0.5166491474 -2.1140055584 -1.3581748789
BR -0.6501183997  0.0169710494  2.3240479889
15
Step 29  E=-3010.2011808654  phi=37.768  theta=71.910
C  -1.4713599509  1.1521342507 -1.6009153627
C  -0.0469907385  1.1844052859 -1.5903207414
C   0.6490350878 -0.0049729406 -1.4835121678
C  -2.1824803670 -0.0185197773 -1.5176575411
H  -2.0294879457  2.0696827013 -1.7181408860
H   0.5142257780  2.0991315764 -1.7048709946
H  -3.2580661608 -0.0418944838 -1.5703492934
N   2.1043592575 -0.0033731285 -1.4644730787
O   2.6210251448 -1.0846949794 -1.3659929562
O   2.5913573198  1.1003105189 -1.5451869918
C  -1.4620902904 -1.1876403133 -1.3865073267
H  -2.0027603545 -2.1138948654 -1.3567458656
C  -0.0428482833 -1.1926481661 -1.3658087646
H   0.5150075275 -2.1155984432 -1.3551496598
BR -0.6501183997  0.0169710494  2.3240479889
15
Step 30  E=-3010.2006005303  phi=37.758  theta=71.844
C  -1.4691403733  1.1520420139 -1.6006721477
C  -0.0478929707  1.1841173278 -1.5908546518
C   0.6506625392 -0.0054619810 -1.4827746682
C  -2.1854020603 -0.0166172067 -1.5163519932
H  -2.0249769697  2.0726011898 -1.7193996107
H   0.5119821294  2.1017734097 -1.7079613088
H  -3.2467850624 -0.0388673439 -1.5693503200
N   2.1026702043 -0.0030711323 -1.4648810495
O   2.6221880075 -1.0863920547 -1.3652865245
O   2.5915877888  1.1019946879 -1.5464015806
C  -1.4605337602 -1.1887622994 -1.3830560092
H  -1.9873856062 -2.1018092187 -1.3516312097
C  -0.0434763162 -1.1908586626 -1.3631724228
H   0.5129249117 -2.1170517665 -1.3516118164
BR -0.6501183997  0.0169710494  2.3240479889
15
Step 31  E=-3010.1986682725  phi=37.734  theta=71.775
C  -1.4672105296  1.1520794148 -1.6004777934
C  -0.0485958549  1.1837913902 -1.5914169028
C   0.6518634142 -0.0059526643 -1.4819937495
C  -2.1883323372 -0.0149858387 -1.5149743918
H  -2.0194235470  2.0758721881 -1.7205791532
H   0.5088187461  2.1040658564 -1.7109730152
H  -3.2298644763 -0.0349315354 -1.5679013208
N   2.1011227030 -0.0023287362 -1.4653284041
O   2.6234644389 -1.0880413536 -1.3645678807
O   2.5917542556  1.1032733251 -1.5476245461
C  -1.4595801724 -1.1899219101 -1.3795203448
H  -1.9685085176 -2.0864765536 -1.3462150914
C  -0.0438357438 -1.1891404074 -1.3604949110
H   0.5103243845 -2.1181140346 -1.3475642376
BR -0.6501183997  0.0169710494  2.3240479889
15
Step 32  E=-3010.1949280241  phi=37.698  theta=71.705
C  -1.4656180970  1.1522433613 -1.6003342883
C  -0.0490678084  1.1834330467 -1.5920089664
C   0.6526211310 -0.0064314747 -1.4811713631
C  -2.1909674670 -0.0136427676 -1.5135091918
H  -2.0128368573  2.0793498334 -1.7216627264
H   0.5047126576  2.1058432530 -1.7138826746
H  -3.2103212211 -0.0302143444 -1.5661398886
N   2.0997708307 -0.0011809207 -1.4658101941
O   2.6248287155 -1.0895963237 -1.3638419419
O   2.5918436824  1.1041285242 -1.5488548134
C  -1.4591034076 -1.1908008710 -1.3759104094
H  -1.9481747810 -2.0710691200 -1.3404062143
C  -0.0439054412 -1.1875182031 -1.3577754811
H   0.5071893480 -2.1186143984 -1.3430138822
BR -0.6501183997  0.0169710494  2.3240479889
15
Step 33  E=-3010.1901200218  phi=37.651  theta=71.632
C  -1.4643957220  1.1525249275 -1.6002423437
C  -0.0492920306  1.1830412764 -1.5926315857
C   0.6529304098 -0.0068827275 -1.4803098330
C  -2.1929476263 -0.0125976392 -1.5119380487
H  -2.0052953273  2.0829337122 -1.7226418980
H   0.4997224544  2.1070398509 -1.7166787603
H  -3.1919580248 -0.0248751502 -1.5642477579
N   2.0986615232  0.0003247592 -1.4663205374
O   2.6262544489 -1.0910098943 -1.3631137326
O   2.5918474218  1.1045525176 -1.5500920196
C  -1.4589380726 -1.1910403577 -1.3722388276
H  -1.9287560011 -2.0593168551 -1.3340777233
C  -0.0436811701 -1.1860083855 -1.3550124613
H   0.5035702036 -2.1184822333 -1.3379710597
BR -0.6501183997  0.0169710494  2.3240479889
15
Step 34  E=-3010.1863493271  phi=37.596  theta=71.557
C  -1.4635579320  1.1529112161 -1.6002015289
C  -0.0492665182  1.1826083971 -1.5932846652
C   0.6527978397 -0.0072886277 -1.4794119626
C  -2.1939171076 -0.0118532601 -1.5102428435
H  -1.9969473426  2.0865732211 -1.7235173713
H   0.4939882676  2.1076937039 -1.7193627118
H  -3.1787054317 -0.0190784385 -1.5624160931
N   2.0978330105  0.0021303940 -1.4668528111
O   2.6277155044 -1.0922360814 -1.3623882294
O   2.5917613801  1.1045474688 -1.5513365123
C  -1.4589219697 -1.1903156054 -1.3685183984
H  -1.9124567973 -2.0546881261 -1.3270928050
C  -0.0431727603 -1.1846168234 -1.3522031492
H   0.4995834741 -2.1177531365 -1.3324485103
BR -0.6501183997  0.0169710494  2.3240479889
15
Step 35  E=-3010.1858242647  phi=37.537  theta=71.481
C  -1.4630986501  1.1533879073 -1.6002104893
C  -0.0490031582  1.1821213161 -1.5939673488
C   0.6522420284 -0.0076297920 -1.4784810909
C  -2.1936165768 -0.0114049461 -1.5084106541
H  -1.9880046115  2.0902646342 -1.7242986067
H   0.4877228319  2.1079370454 -1.7219483100
H  -3.1735920248 -0.0129690869 -1.5607894645
N   2.0973135318  0.0041698069 -1.4673998297
O   2.6291868376 -1.0932314306 -1.3616702180
O   2.5915861264  1.1041252317 -1.5525893474
C  -1.4589486916 -1.1884375737 -1.3647573051
H  -1.9006943035 -2.0592583870 -1.3193564786
C  -0.0424003973 -1.1833380852 -1.3493437808
H   0.4954039699 -2.1165610683 -1.3264604593
BR -0.6501183997  0.0169710494  2.3240479889
15
Step 36  E=-3010.1889369183  phi=37.476  theta=71.402
C  -1.4629902607  1.1539419635 -1.6002671773
C  -0.0485259458  1.1815639199 -1.5946782796
C   0.6512932897 -0.0078859789 -1.4775210658
C  -2.1919745410 -0.0112382662 -1.5064389465
H  -1.9787290776  2.0940412451 -1.7250023239
H   0.4811942619  2.1079736684 -1.7244593014
H  -3.1777116652 -0.0066682909 -1.5594083687
N   2.0971204208  0.0063704910 -1.4679540002
O   2.6306452217 -1.0939562620 -1.3609641689
O   2.5913269449  1.1033070421 -1.5538522844
C  -1.4590018524 -1.1854318373 -1.3609537054
H  -1.8936810878 -2.0728297763 -1.3108740238
C  -0.0413915538 -1.1821567132 -1.3464295755
H   0.4912503661 -2.1151171723 -1.3200219611
BR -0.6501183997  0.0169710494  2.3240479889
15
Step 37  E=-3010.1938639964  phi=37.417  theta=71.322
C  -1.4631852950  1.1545637897 -1.6003690898
C  -0.0478684793  1.1809203396 -1.5954160185
C   0.6499928403 -0.0080368653 -1.4765361311
C  -2.1891436791 -0.0113260271 -1.5043378895
H  -1.9694150483  2.0979572357 -1.7256500176
H   0.4747018943  2.1080450035 -1.7269253652
H  -3.1898058189 -0.0002962465 -1.5581850799
N   2.0972596324  0.0086554167 -1.4685074606
O   2.6320698471 -1.0943757056 -1.3602741273
O   2.5909938063  1.1021230959 -1.5551277760
C  -1.4591463769 -1.1815393298 -1.3570931923
H  -1.8905090302 -2.0929309312 -1.3017771026
C  -0.0401793565 -1.1810509625 -1.3434548104
H   0.4873646172 -2.1136769763 -1.3131487891
BR -0.6501183997  0.0169710494  2.3240479889
15
Step 38  E=-3010.1981982652  phi=37.363  theta=71.239
C  -1.4636209770  1.1552484233 -1.6005135042
C  -0.0470709477  1.1801787643 -1.5961795552
C   0.6483915171 -0.0080628857 -1.4755307379
C  -2.1854554606 -0.0116268606 -1.5021280775
H  -1.9603685921  2.1020670110 -1.7262647471
H   0.4685476805  2.1083883513 -1.7293767859
H  -3.2067623329  0.0059983776 -1.5569310435
N   2.0977257374  0.0109447588 -1.4690522043
O   2.6334427867 -1.0944605311 -1.3596036244
O   2.5906012192  1.1006119805 -1.5564189493
C  -1.4594846916 -1.1771377880 -1.3531510422
H  -1.8896568433 -2.1157041668 -1.2922974036
C  -0.0388020165 -1.1799982837 -1.3404128910
H   0.4839867543 -2.1124993791 -1.3058580107
BR -0.6501183997  0.0169710494  2.3240479889
15
Step 39  E=-3010.2006449977  phi=37.317  theta=71.155
C  -1.4642256464  1.1559957498 -1.6006977304
C  -0.0461769214  1.1793353307 -1.5969688565
C   0.6465480801 -0.0079461842 -1.4745093226
C  -2.1813240546 -0.0120870359 -1.4998352207
H  -1.9518864607  2.1064032397 -1.7268676839
H   0.4630070174  2.1091929384 -1.7318385557
H  -3.2246739500  0.0120282195 -1.5554167372
N   2.0985023687  0.0131576505 -1.4695802028
O   2.6347493367 -1.0941878041 -1.3589556016
O   2.5901679388  1.0988199112 -1.5577295747
C  -1.4601093974 -1.1726380716 -1.3490975009
H  -1.8895591157 -2.1370566670 -1.2827082262
C  -0.0373022456 -1.1789810628 -1.3372963610
H   0.4813283827 -2.1118028889 -1.2981693090
BR -0.6501183997  0.0169710494  2.3240479889
15
Step 40  E=-3010.2013320906  phi=37.283  theta=71.068
C  -1.4649254580  1.1568100008 -1.6009193363
C  -0.0452303396  1.1783974945 -1.5977853505
C   0.6445271825 -0.0076718144 -1.4734760752
C  -2.1771536447 -0.0126447333 -1.4974848569
H  -1.9442367361  2.1109575580 -1.7274749634
H   0.4583035224  2.1105612039 -1.7343249434
H  -3.2398411143  0.0175810782 -1.5534290455
N   2.0995630750  0.0152140603 -1.4700835407
O   2.6359782466 -1.0935413924 -1.3583323500
O   2.5897164989  1.0967997206 -1.5590640146
C  -1.4610746477 -1.1684058818 -1.3449030340
H  -1.8889728720 -2.1535047706 -1.2732685306
C  -0.0357259957 -1.1779911307 -1.3340969023
H   0.4795493813 -2.1117260317 -1.2901068154