
                                 *****************
                                 * O   R   C   A *
                                 *****************

                                            #,                                       
                                            ###                                      
                                            ####                                     
                                            #####                                    
                                            ######                                   
                                           ########,                                 
                                     ,,################,,,,,                         
                               ,,#################################,,                 
                          ,,##########################################,,             
                       ,#########################################, ''#####,          
                    ,#############################################,,   '####,        
                  ,##################################################,,,,####,       
                ,###########''''           ''''###############################       
              ,#####''   ,,,,##########,,,,          '''####'''          '####       
            ,##' ,,,,###########################,,,                        '##       
           ' ,,###''''                  '''############,,,                           
         ,,##''                                '''############,,,,        ,,,,,,###''
      ,#''                                            '''#######################'''  
     '                                                          ''''####''''         
             ,#######,   #######,   ,#######,      ##                                
            ,#'     '#,  ##    ##  ,#'     '#,    #''#        ,####,    ,#,          
            ##       ##  ##   ,#'  ##            #'  '#       #'       ,# #          
            ##       ##  #######   ##           ,######,      #####,      #          
            '#,     ,#'  ##    ##  '#,     ,#' ,#      #,     #,   #      #          
             '#######'   ##     ##  '#######'  #'      '#     '####' #    #          



                #########################################################
                #                        -***-                          #
                #          Department of theory and spectroscopy        #
                #                                                       #
                #                      Frank Neese                      #
                #                                                       #
                #     Directorship, Architecture, Infrastructure        #
                #                    SHARK, DRIVERS                     #
                #        Core code/Algorithms in most modules           #
                #                                                       #
                #        Max Planck Institute fuer Kohlenforschung      #
                #                Kaiser Wilhelm Platz 1                 #
                #                 D-45470 Muelheim/Ruhr                 #
                #                      Germany                          #
                #                                                       #
                #                  All rights reserved                  #
                #                        -***-                          #
                #########################################################


                         Program Version 6.1.1  -  RELEASE   -
                                (GIT: $487d211cc3$)
                          ($2025-11-21 10:33:24 +0100$)


 With contributions from (in alphabetic order):
[Max-Planck-Institut fuer Kohlenforschung]                               
  Daniel Aravena         : Magnetic Suceptibility                        
  Michael Atanasov       : Ab Initio Ligand Field Theory (pilot matlab implementation)
  Alexander A. Auer      : GIAO ZORA, VPT2 properties, NMR spectrum      
  Ute Becker             : All parallelization in ORCA, NUMFREQ, NUMCALC 
  Giovanni Bistoni       : ED, misc. LED, open-shell LED, HFLD           
  Dmytro Bykov           : pre 5.0 version of the SCF Hessian            
  Marcos Casanova-Páez   : Triplet and SCS-CIS(D). UHF-(DLPNO)-IP/EA/STEOM-CCSD. UHF-CVS-IP/STEOM-CCSD   
  Vijay G. Chilkuri      : MRCI spin determinant printing, contributions to CSF-ICE 
  Pauline Colinet        : FMM embedding                                 
  Dipayan Datta          : RHF DLPNO-CCSD density                        
  Achintya Kumar Dutta   : EOM-CC, STEOM-CC                              
  Nicolas Foglia         : Exact transition moments, OPA infrastructure, MCD improvements    
  Dmitry Ganyushin       : Spin-Orbit,Spin-Spin,Magnetic field MRCI      
  Miquel Garcia-Rates    : C-PCM and meta-GGA Hessian, CCSD/C-PCM, Gaussian charge scheme 
  Tiago L. C. Gouveia    : GS-ROHF, GS-ROCIS                             
  Yang Guo               : DLPNO-NEVPT2, F12-NEVPT2, CIM, IAO-localization        
  Andreas Hansen         : Spin unrestricted coupled pair/coupled cluster methods 
  Ingolf Harden          : AUTO-CI MPn and infrastructure                
  Benjamin Helmich-Paris : MC-RPA, TRAH-(SCF,CASSCF), AVAS, COSX integrals, SCF dyn. polar., MC-PDFT, srDFT 
  Lee Huntington         : MR-EOM, pCC                                   
  Robert Izsak           : Overlap fitted RIJCOSX, COSX-SCS-MP3, EOM     
  Riya Kayal             : Wick's Theorem for AUTO-CI, AUTO-CI UHF-CCSDT 
  Emily Kempfer          : AUTO-CI RHF CISDT and CCSDT, approximate NEVPT4
  Christian Kollmar      : KDIIS, OOCD, Brueckner-CCSD(T), CCSD density, CASPT2, CASPT2-K, improved NEVPT2 
  Axel Koslowski         : Symmetry handling                             
  Simone Kossmann        : meta-GGA functionals, TD-DFT gradient, OOMP2, (MP2 Hessian; deprecated post 5.0) 
  Lucas Lang             : DCDCAS, Hyperfine gauge corrections, ICE-SOC+SSC
  Marvin Lechner         : AUTO-CI (C++ implementation), FIC-MRCC        
  Spencer Leger          : CASSCF response                               
  Dagmar Lenk            : GEPOL surface, SMD, ORCA-2-JSON               
  Dimitrios Liakos       : Extrapolation schemes; Compound Job, Property file
  Dimitrios Manganas     : Further ROCIS development; embedding schemes. LFT, Crystal Embedding 
  Dimitrios Pantazis     : SARC Basis sets                               
  Anastasios Papadopoulos: AUTO-CI, single reference methods and gradients 
  Taras Petrenko         : pre 6.0 DFT Hessian and TD-DFT gradient,  ECA, NRVS 
  Petra Pikulova         : Analytic Raman intensities                    
  Peter Pinski           : DLPNO-MP2, DLPNO-MP2 Gradient                 
  Shashank Vittal Rao    : ES-AILFT, MagRelax                            
  Christoph Reimann      : Effective Core Potentials                     
  Marius Retegan         : Local ZFS, SOC                                
  Christoph Riplinger    : Optimizer, TS searches, QM/MM, DLPNO-CCSD(T), (RO)-DLPNO pert. Triples 
  Michael Roemelt        : Original ROCIS implementation, recursive CI coupling coefficients
  Masaaki Saitow         : Open-shell DLPNO-CCSD energy and density      
  Barbara Sandhoefer     : DKH picture change effects                    
  Yorick L. A. Schmerwitz: GMF and freeze-and-release deltaSCF, NEB S-IDPP initial path                    
  Kantharuban Sivalingam : CASSCF convergence/infrastructure, NEVPT2, NEVPT3, NEVPT4(SD), FIC-MRCI and CEPA variants
  Bernardo de Souza      : ESD, SOC TD-DFT                               
  Georgi L. Stoychev     : AutoAux, RI-MP2 NMR, DLPNO-MP2 response, X2C  
  Van Anh Tran           : RI-MP2 g-tensors                              
  Willem Van den Heuvel  : Paramagnetic NMR                              
  Zikuan Wang            : NOTCH, Electric field optimization            
  Frank Wennmohs         : Technical directorship and infrastructure     
  Hang Xu                : AUTO-CI-Response properties                   
                                                                         
[FACCTs GmbH]                                                            
  Markus Bursch, Nicolas Foglia, Miquel Garcia-Rates, Ingolf Harden, Hagen Neugebauer, Anastasios Papadopoulos, 
  Christoph Riplinger, Bernardo de Souza, Georgi L. Stoychev                                                    
                                                                 
  APM, various basis sets, CI-OPT, improved COSX, DLPNO-Multilevel,           
  DOCKER, DRACO, updates on ESD, Fragmentator, GOAT, IRC, LR-CPCM, L-BFGS, MBIS, meta-GGA TD-DFT gradient, ML-optimized integration grids, 
  MM, NACMEs, nearIR, NEB, NEB-TS, NL-DFT gradient (VV10), 2- and 3-layer-ONIOM, interface openCOSMO-RS, QMMM,   
  Crystal-QMMM, RESP, rigid body optimization, SF, symmetry and pop. for TD-DFT, various functionals, SOLVATOR                                   
                                                                         
[Other institutions]                                                     
  V. Asgeirsson          : NEB                                           
  Christoph Bannwarth    : sTDA-DFT, sTD-DFT, PBEh-3c, B97-3c, D3        
  Giovanni Bistoni       : ETS/NOCV, ADLD/ADEX, COVALED                  
  Martin Brehm           : Molecular dynamics                            
  Ronald Cardenas        : ETS/NOCV                                      
  Martina Colucci        : COVALED                                       
  Sebastian Ehlert       : rSCAN, r2SCAN, r2SCAN-3c, D4, dhf basis sets  
  Marvin Friede          : D4 for Fr, Ra, Ac-Lr                          
  Lars Goerigk           : TD-DFT with DH, B97 family of functionals     
  Stefan Grimme          : VdW corrections, initial TS optimization, DFT functionals, gCP, sTDA/sTD-DF 
  Waldemar Hujo          : DFT-NL                                        
  H. Jonsson             : NEB                                           
  Holger Kruse           : gCP                                           
  Marcel Mueller         : wB97X-3c, vDZP basis set                      
  Hagen Neugebauer       : wr2SCAN, Native XTB                           
  Gianluca Regni         : ADLD/ADEX                                     
  Tobias Risthaus        : pre 6.0 range-separated hybrid DFT and stability analysis
  Lukas Wittmann         : regularized MP2, r2SCAN double-hybrids, wr2SCAN        
                                                                         
We gratefully acknowledge several colleagues who have allowed us to      
interface, adapt or use parts of their codes:                            
  Ed Valeev, F. Pavosevic, A. Kumar             : LibInt (2-el integral package), F12 methods 
  Garnet Chan, S. Sharma, J. Yang, R. Olivares  : DMRG                   
  Ulf Ekstrom                                   : XCFun DFT Library      
  Mihaly Kallay                                 : mrcc  (arbitrary order and MRCC methods)
  Frank Weinhold                                : gennbo (NPA and NBO analysis)           
  Simon Mueller                                 : openCOSMO-RS                            
  Christopher J. Cramer and Donald G. Truhlar   : smd solvation model                     
  S Lehtola, MJT Oliveira, MAL Marques          : LibXC Library                           
  Liviu Ungur et al                             : ANISO software                          


 Your calculation uses the libint2 library for the computation of 2-el integrals
 For citations please refer to: http://libint.valeyev.net

 Your ORCA version has been built with support for libXC version: 7.0.0
 For citations please refer to: https://libxc.gitlab.io

 This ORCA versions uses:
   CBLAS   interface :  Fast vector & matrix operations
   LAPACKE interface :  Fast linear algebra routines
   SCALAPACK package :  Parallel linear algebra routines
   Shared memory     :  Shared parallel matrices


  ***********************************
  * Starting time: Tue Jun 23 12:05:50 2026
  * Host name:     CHEM9LYY31VAWS
  * Process ID:    82881
  * Working dir.:  /Users/jfoley19/Code/nbr_data/DLPNO_CCSDpT
  ***********************************

NOTE: MaxCore=6000 MB was set to SCF,MP2,MDCI,CIPSI,MRCI,RASCI and CIS
      => If you want to overwrite this, your respective input block should be placed after the MaxCore statement
================================================================================

----- Orbital basis set information -----
Your calculation utilizes the basis: def2-TZVP
   F. Weigend and R. Ahlrichs, Phys. Chem. Chem. Phys. 7, 3297 (2005).

----- AuxJ basis set information -----
Your calculation utilizes the auxiliary basis: def2/J
   H-Rn: F. Weigend, Phys. Chem. Chem. Phys. 8, 1057 (2006).
   Fr-Lr: K. Eichkorn, F. Weigend, O. Treutler, R. Ahlrichs; Theor. Chem. Acc. 97, 119 (1997).

----- AuxC basis set information -----
Your calculation utilizes the auxiliary basis: def2-TZVP/C
  H-La, Hf-Rn : A. Hellweg, C. Hattig, S. Hofener and W. Klopper, Theor. Chem. Acc. 117, 587 (2007).
        Ce-Lu : J. Chmela and M. E. Harding, Mol. Phys. (2018).

================================================================================
                                        WARNINGS
                       Please study these warnings very carefully!
================================================================================


WARNING: Post HF methods need fully converged wavefunctions
  ===> : Setting SCFConvForced true
         You can overwrite this default with %scf ConvForced false 


WARNING: MDCI localization with Augmented Hessian Foster-Boys
  ===> : Switching off randomization!

================================================================================
                                       INPUT FILE
================================================================================
NAME = meta_dlpno_ccsdpt.inp
|  1> ! DLPNO-CCSD(T) def2-TZVP def2/J def2-TZVP/C RIJCOSX TightSCF TightPNO
|  2> 
|  3> %pal 
|  4>   nprocs 16  # Change this to match your exact number of Performance Cores
|  5> end
|  6> 
|  7> %maxcore 6000 # Utilizes ~96 GB of your 128 GB RAM safely
|  8> 
|  9> %scf
| 10>   MaxIter 300
| 11> end
| 12> 
| 13> * xyz 1 1
| 14> C   -0.929257263947    2.021527608578    0.744707683350
| 15> C    0.476075706053    1.968481358578    0.682883583350
| 16> C    1.153033166053    0.732862858578    0.671089073350
| 17> C    0.486309286053   -0.455398891422    0.707696283350
| 18> C   -1.646688783947    0.850023888578    0.786483593350
| 19> H   -1.430027043947    2.980198348578    0.754644003350
| 20> H    1.068570756053    2.878318968578    0.644324213350
| 21> H    1.030908186053   -1.394630481422    0.699715393350
| 22> H   -2.730391873947    0.862207158578    0.834726773350
| 23> N    2.627601876053    0.732774608578    0.609077593350
| 24> O    3.188360516053   -0.377859281422    0.588451963350
| 25> O    3.186221516053    1.845711198578    0.586422223350
| 26> C   -0.982368843947   -0.464026221422    0.760065283350
| 27> H   -1.395507033947   -1.190671951422    1.465426213350
| 28> Br  -1.494673453947   -1.187920261422   -1.064256256650
| 29> *
| 30> 
| 31>                          ****END OF INPUT****
================================================================================

                       ****************************
                       * Single Point Calculation *
                       ****************************

---------------------------------
CARTESIAN COORDINATES (ANGSTROEM)
---------------------------------
  C     -0.929257    2.021528    0.744708
  C      0.476076    1.968481    0.682884
  C      1.153033    0.732863    0.671089
  C      0.486309   -0.455399    0.707696
  C     -1.646689    0.850024    0.786484
  H     -1.430027    2.980198    0.754644
  H      1.068571    2.878319    0.644324
  H      1.030908   -1.394630    0.699715
  H     -2.730392    0.862207    0.834727
  N      2.627602    0.732775    0.609078
  O      3.188361   -0.377859    0.588452
  O      3.186222    1.845711    0.586422
  C     -0.982369   -0.464026    0.760065
  H     -1.395507   -1.190672    1.465426
  Br    -1.494673   -1.187920   -1.064256

----------------------------
CARTESIAN COORDINATES (A.U.)
----------------------------
  NO LB      ZA    FRAG     MASS         X           Y           Z
   0 C     6.0000    0    12.011   -1.756042    3.820134    1.407294
   1 C     6.0000    0    12.011    0.899653    3.719891    1.290463
   2 C     6.0000    0    12.011    2.178917    1.384910    1.268175
   3 C     6.0000    0    12.011    0.918991   -0.860579    1.337352
   4 C     6.0000    0    12.011   -3.111791    1.606312    1.486239
   5 H     1.0000    0     1.008   -2.702359    5.631759    1.426070
   6 H     1.0000    0     1.008    2.019306    5.439235    1.217596
   7 H     1.0000    0     1.008    1.948134   -2.635470    1.322270
   8 H     1.0000    0     1.008   -5.159693    1.629335    1.577405
   9 N     7.0000    0    14.007    4.965448    1.384743    1.150990
  10 O     8.0000    0    15.999    6.025128   -0.714051    1.112013
  11 O     8.0000    0    15.999    6.021086    3.487889    1.108177
  12 C     6.0000    0    12.011   -1.856408   -0.876882    1.436315
  13 H     1.0000    0     1.008   -2.637126   -2.250044    2.769254
  14 Br   35.0000    0    79.900   -2.824523   -2.244844   -2.011153

--------------------------------
INTERNAL COORDINATES (ANGSTROEM)
--------------------------------
 C      0   0   0     0.000000000000     0.00000000     0.00000000
 C      1   0   0     1.407692040380     0.00000000     0.00000000
 C      2   1   0     1.408958335317   120.86895091     0.00000000
 C      3   2   1     1.363021205447   121.95724932     0.53252904
 C      1   2   3     1.374363190179   119.36354275   359.63678141
 H      1   2   3     1.081627796771   119.73603594   179.88574039
 H      2   1   3     1.086435311401   120.96029473   180.08368919
 H      4   3   2     1.085729080453   120.57066390   180.12720706
 H      5   1   2     1.084844792475   120.87986791   179.98010614
 N      3   2   1     1.475872051348   118.71456726   180.16291538
 O     10   3   2     1.244340510698   116.80780421   180.62009180
 O     10   3   2     1.245470602361   116.66900883     0.81552330
 C      4   3   2     1.469636823342   119.66362908     0.05213276
 H     13   4   3     1.093723558553   113.85166511   223.00758740
 Br    13   4   3     2.028454504267   102.85246486   110.76912096

---------------------------
INTERNAL COORDINATES (A.U.)
---------------------------
 C      0   0   0     0.000000000000     0.00000000     0.00000000
 C      1   0   0     2.660152437219     0.00000000     0.00000000
 C      2   1   0     2.662545387854   120.86895091     0.00000000
 C      3   2   1     2.575736793023   121.95724932     0.53252904
 C      1   2   3     2.597170037981   119.36354275   359.63678141
 H      1   2   3     2.043980314735   119.73603594   179.88574039
 H      2   1   3     2.053065200770   120.96029473   180.08368919
 H      4   3   2     2.051730617689   120.57066390   180.12720706
 H      5   1   2     2.050059555588   120.87986791   179.98010614
 N      3   2   1     2.788993985757   118.71456726   180.16291538
 O     10   3   2     2.351462782563   116.80780421   180.62009180
 O     10   3   2     2.353598346311   116.66900883     0.81552330
 C      4   3   2     2.777211112443   119.66362908     0.05213276
 H     13   4   3     2.066837991883   113.85166511   223.00758740
 Br    13   4   3     3.833223488184   102.85246486   110.76912096

---------------------
BASIS SET INFORMATION
---------------------
There are 5 groups of distinct atoms

 Group   1 Type C   : 11s6p2d1f contracted to 5s3p2d1f pattern {62111/411/11/1}
 Group   2 Type H   : 5s1p contracted to 3s1p pattern {311/1}
 Group   3 Type N   : 11s6p2d1f contracted to 5s3p2d1f pattern {62111/411/11/1}
 Group   4 Type O   : 11s6p2d1f contracted to 5s3p2d1f pattern {62111/411/11/1}
 Group   5 Type Br  : 17s13p8d1f contracted to 6s5p4d1f pattern {842111/64111/5111/1}

Atom   0C    basis set group =>   1
Atom   1C    basis set group =>   1
Atom   2C    basis set group =>   1
Atom   3C    basis set group =>   1
Atom   4C    basis set group =>   1
Atom   5H    basis set group =>   2
Atom   6H    basis set group =>   2
Atom   7H    basis set group =>   2
Atom   8H    basis set group =>   2
Atom   9N    basis set group =>   3
Atom  10O    basis set group =>   4
Atom  11O    basis set group =>   4
Atom  12C    basis set group =>   1
Atom  13H    basis set group =>   2
Atom  14Br   basis set group =>   5
---------------------------------
AUXILIARY/J BASIS SET INFORMATION
---------------------------------
There are 5 groups of distinct atoms

 Group   1 Type C   : 12s5p4d2f1g contracted to 6s4p3d1f1g pattern {711111/2111/211/2/1}
 Group   2 Type H   : 5s2p1d contracted to 3s1p1d pattern {311/2/1}
 Group   3 Type N   : 12s5p4d2f1g contracted to 6s4p3d1f1g pattern {711111/2111/211/2/1}
 Group   4 Type O   : 12s5p4d2f1g contracted to 6s4p3d1f1g pattern {711111/2111/211/2/1}
 Group   5 Type Br  : 19s5p5d3f1g contracted to 8s4p3d2f1g pattern {121111111/2111/311/21/1}

Atom   0C    basis set group =>   1
Atom   1C    basis set group =>   1
Atom   2C    basis set group =>   1
Atom   3C    basis set group =>   1
Atom   4C    basis set group =>   1
Atom   5H    basis set group =>   2
Atom   6H    basis set group =>   2
Atom   7H    basis set group =>   2
Atom   8H    basis set group =>   2
Atom   9N    basis set group =>   3
Atom  10O    basis set group =>   4
Atom  11O    basis set group =>   4
Atom  12C    basis set group =>   1
Atom  13H    basis set group =>   2
Atom  14Br   basis set group =>   5
---------------------------------
AUXILIARY/C BASIS SET INFORMATION
---------------------------------
There are 5 groups of distinct atoms

 Group   1 Type C   : 8s6p5d3f1g contracted to 8s6p4d3f1g pattern {11111111/111111/2111/111/1}
 Group   2 Type H   : 4s3p2d contracted to 4s2p1d pattern {1111/21/2}
 Group   3 Type N   : 8s6p5d3f1g contracted to 8s6p4d3f1g pattern {11111111/111111/2111/111/1}
 Group   4 Type O   : 8s6p5d3f1g contracted to 8s6p4d3f1g pattern {11111111/111111/2111/111/1}
 Group   5 Type Br  : 10s9p8d6f4g1h contracted to 10s9p8d5f4g1h pattern {1111111111/111111111/11111111/21111/1111/1}

Atom   0C    basis set group =>   1
Atom   1C    basis set group =>   1
Atom   2C    basis set group =>   1
Atom   3C    basis set group =>   1
Atom   4C    basis set group =>   1
Atom   5H    basis set group =>   2
Atom   6H    basis set group =>   2
Atom   7H    basis set group =>   2
Atom   8H    basis set group =>   2
Atom   9N    basis set group =>   3
Atom  10O    basis set group =>   4
Atom  11O    basis set group =>   4
Atom  12C    basis set group =>   1
Atom  13H    basis set group =>   2
Atom  14Br   basis set group =>   5

Checking for AutoStart:
The File: meta_dlpno_ccsdpt.gbw exists
Trying to determine its content:
     ... Fine, the file contains calculation information
     ... Fine, the calculation information was read
     ... Fine, the file contains a basis set
     ... Fine, the basis set was read
     ... Fine, the file contains a geometry
     ... Fine, the geometry was read
     ... The file does not contain orbitals - skipping AutoStart
dyld[82894]: Library not loaded: libmpi.40.dylib
  Referenced from: <DCE2C13E-08AB-3D2B-A879-A2D1160D2583> /Users/jfoley19/Library/orca_6_1_1/orca_startup_mpi
  Reason: tried: 'libmpi.40.dylib' (no such file), '/System/Volumes/Preboot/Cryptexes/OSlibmpi.40.dylib' (no such file), 'libmpi.40.dylib' (no such file), '/usr/local/lib/libmpi.40.dylib' (no such file), '/usr/lib/libmpi.40.dylib' (no such file, not in dyld cache), '/Users/jfoley19/Code/nbr_data/DLPNO_CCSDpT/libmpi.40.dylib' (no such file), '/System/Volumes/Preboot/Cryptexes/OS/Users/jfoley19/Code/nbr_data/DLPNO_CCSDpT/libmpi.40.dylib' (no such file), '/Users/jfoley19/Code/nbr_data/DLPNO_CCSDpT/libmpi.40.dylib' (no such file), '/usr/local/lib/libmpi.40.dylib' (no such file), '/usr/lib/libmpi.40.dylib' (no such file, not in dyld cache)
dyld[82895]: Library not loaded: libmpi.40.dylib
  Referenced from: <DCE2C13E-08AB-3D2B-A879-A2D1160D2583> /Users/jfoley19/Library/orca_6_1_1/orca_startup_mpi
  Reason: tried: 'libmpi.40.dylib' (no such file), '/System/Volumes/Preboot/Cryptexes/OSlibmpi.40.dylib' (no such file), 'libmpi.40.dylib' (no such file), '/usr/local/lib/libmpi.40.dylib' (no such file), '/usr/lib/libmpi.40.dylib' (no such file, not in dyld cache), '/Users/jfoley19/Code/nbr_data/DLPNO_CCSDpT/libmpi.40.dylib' (no such file), '/System/Volumes/Preboot/Cryptexes/OS/Users/jfoley19/Code/nbr_data/DLPNO_CCSDpT/libmpi.40.dylib' (no such file), '/Users/jfoley19/Code/nbr_data/DLPNO_CCSDpT/libmpi.40.dylib' (no such file), '/usr/local/lib/libmpi.40.dylib' (no such file), '/usr/lib/libmpi.40.dylib' (no such file, not in dyld cache)
dyld[82896]: Library not loaded: libmpi.40.dylib
  Referenced from: <DCE2C13E-08AB-3D2B-A879-A2D1160D2583> /Users/jfoley19/Library/orca_6_1_1/orca_startup_mpi
  Reason: tried: 'libmpi.40.dylib' (no such file), '/System/Volumes/Preboot/Cryptexes/OSlibmpi.40.dylib' (no such file), 'libmpi.40.dylib' (no such file), '/usr/local/lib/libmpi.40.dylib' (no such file), '/usr/lib/libmpi.40.dylib' (no such file, not in dyld cache), '/Users/jfoley19/Code/nbr_data/DLPNO_CCSDpT/libmpi.40.dylib' (no such file), '/System/Volumes/Preboot/Cryptexes/OS/Users/jfoley19/Code/nbr_data/DLPNO_CCSDpT/libmpi.40.dylib' (no such file), '/Users/jfoley19/Code/nbr_data/DLPNO_CCSDpT/libmpi.40.dylib' (no such file), '/usr/local/lib/libmpi.40.dylib' (no such file), '/usr/lib/libmpi.40.dylib' (no such file, not in dyld cache)
dyld[82899]: Library not loaded: libmpi.40.dylib
  Referenced from: <DCE2C13E-08AB-3D2B-A879-A2D1160D2583> /Users/jfoley19/Library/orca_6_1_1/orca_startup_mpi
  Reason: tried: 'libmpi.40.dylib' (no such file), '/System/Volumes/Preboot/Cryptexes/OSlibmpi.40.dylib' (no such file), 'libmpi.40.dylib' (no such file), '/usr/local/lib/libmpi.40.dylib' (no such file), '/usr/lib/libmpi.40.dylib' (no such file, not in dyld cache), '/Users/jfoley19/Code/nbr_data/DLPNO_CCSDpT/libmpi.40.dylib' (no such file), '/System/Volumes/Preboot/Cryptexes/OS/Users/jfoley19/Code/nbr_data/DLPNO_CCSDpT/libmpi.40.dylib' (no such file), '/Users/jfoley19/Code/nbr_data/DLPNO_CCSDpT/libmpi.40.dylib' (no such file), '/usr/local/lib/libmpi.40.dylib' (no such file), '/usr/lib/libmpi.40.dylib' (no such file, not in dyld cache)
dyld[82906]: Library not loaded: libmpi.40.dylib
  Referenced from: <DCE2C13E-08AB-3D2B-A879-A2D1160D2583> /Users/jfoley19/Library/orca_6_1_1/orca_startup_mpi
  Reason: tried: 'libmpi.40.dylib' (no such file), '/System/Volumes/Preboot/Cryptexes/OSlibmpi.40.dylib' (no such file), 'libmpi.40.dylib' (no such file), '/usr/local/lib/libmpi.40.dylib' (no such file), '/usr/lib/libmpi.40.dylib' (no such file, not in dyld cache), '/Users/jfoley19/Code/nbr_data/DLPNO_CCSDpT/libmpi.40.dylib' (no such file), '/System/Volumes/Preboot/Cryptexes/OS/Users/jfoley19/Code/nbr_data/DLPNO_CCSDpT/libmpi.40.dylib' (no such file), '/Users/jfoley19/Code/nbr_data/DLPNO_CCSDpT/libmpi.40.dylib' (no such file), '/usr/local/lib/libmpi.40.dylib' (no such file), '/usr/lib/libmpi.40.dylib' (no such file, not in dyld cache)
dyld[82903]: Library not loaded: libmpi.40.dylib
  Referenced from: <DCE2C13E-08AB-3D2B-A879-A2D1160D2583> /Users/jfoley19/Library/orca_6_1_1/orca_startup_mpi
  Reason: tried: 'libmpi.40.dylib' (no such file), '/System/Volumes/Preboot/Cryptexes/OSlibmpi.40.dylib' (no such file), 'libmpi.40.dylib' (no such file), '/usr/local/lib/libmpi.40.dylib' (no such file), '/usr/lib/libmpi.40.dylib' (no such file, not in dyld cache), '/Users/jfoley19/Code/nbr_data/DLPNO_CCSDpT/libmpi.40.dylib' (no such file), '/System/Volumes/Preboot/Cryptexes/OS/Users/jfoley19/Code/nbr_data/DLPNO_CCSDpT/libmpi.40.dylib' (no such file), '/Users/jfoley19/Code/nbr_data/DLPNO_CCSDpT/libmpi.40.dylib' (no such file), '/usr/local/lib/libmpi.40.dylib' (no such file), '/usr/lib/libmpi.40.dylib' (no such file, not in dyld cache)
dyld[82909]: Library not loaded: libmpi.40.dylib
  Referenced from: <DCE2C13E-08AB-3D2B-A879-A2D1160D2583> /Users/jfoley19/Library/orca_6_1_1/orca_startup_mpi
  Reason: tried: 'libmpi.40.dylib' (no such file), '/System/Volumes/Preboot/Cryptexes/OSlibmpi.40.dylib' (no such file), 'libmpi.40.dylib' (no such file), '/usr/local/lib/libmpi.40.dylib' (no such file), '/usr/lib/libmpi.40.dylib' (no such file, not in dyld cache), '/Users/jfoley19/Code/nbr_data/DLPNO_CCSDpT/libmpi.40.dylib' (no such file), '/System/Volumes/Preboot/Cryptexes/OS/Users/jfoley19/Code/nbr_data/DLPNO_CCSDpT/libmpi.40.dylib' (no such file), '/Users/jfoley19/Code/nbr_data/DLPNO_CCSDpT/libmpi.40.dylib' (no such file), '/usr/local/lib/libmpi.40.dylib' (no such file), '/usr/lib/libmpi.40.dylib' (no such file, not in dyld cache)
dyld[82898]: Library not loaded: libmpi.40.dylib
  Referenced from: <DCE2C13E-08AB-3D2B-A879-A2D1160D2583> /Users/jfoley19/Library/orca_6_1_1/orca_startup_mpi
  Reason: tried: 'libmpi.40.dylib' (no such file), '/System/Volumes/Preboot/Cryptexes/OSlibmpi.40.dylib' (no such file), 'libmpi.40.dylib' (no such file), '/usr/local/lib/libmpi.40.dylib' (no such file), '/usr/lib/libmpi.40.dylib' (no such file, not in dyld cache), '/Users/jfoley19/Code/nbr_data/DLPNO_CCSDpT/libmpi.40.dylib' (no such file), '/System/Volumes/Preboot/Cryptexes/OS/Users/jfoley19/Code/nbr_data/DLPNO_CCSDpT/libmpi.40.dylib' (no such file), '/Users/jfoley19/Code/nbr_data/DLPNO_CCSDpT/libmpi.40.dylib' (no such file), '/usr/local/lib/libmpi.40.dylib' (no such file), '/usr/lib/libmpi.40.dylib' (no such file, not in dyld cache)
dyld[82900]: Library not loaded: libmpi.40.dylib
  Referenced from: <DCE2C13E-08AB-3D2B-A879-A2D1160D2583> /Users/jfoley19/Library/orca_6_1_1/orca_startup_mpi
  Reason: tried: 'libmpi.40.dylib' (no such file), '/System/Volumes/Preboot/Cryptexes/OSlibmpi.40.dylib' (no such file), 'libmpi.40.dylib' (no such file), '/usr/local/lib/libmpi.40.dylib' (no such file), '/usr/lib/libmpi.40.dylib' (no such file, not in dyld cache), '/Users/jfoley19/Code/nbr_data/DLPNO_CCSDpT/libmpi.40.dylib' (no such file), '/System/Volumes/Preboot/Cryptexes/OS/Users/jfoley19/Code/nbr_data/DLPNO_CCSDpT/libmpi.40.dylib' (no such file), '/Users/jfoley19/Code/nbr_data/DLPNO_CCSDpT/libmpi.40.dylib' (no such file), '/usr/local/lib/libmpi.40.dylib' (no such file), '/usr/lib/libmpi.40.dylib' (no such file, not in dyld cache)
dyld[82908]: Library not loaded: libmpi.40.dylib
  Referenced from: <DCE2C13E-08AB-3D2B-A879-A2D1160D2583> /Users/jfoley19/Library/orca_6_1_1/orca_startup_mpi
  Reason: tried: 'libmpi.40.dylib' (no such file), '/System/Volumes/Preboot/Cryptexes/OSlibmpi.40.dylib' (no such file), 'libmpi.40.dylib' (no such file), '/usr/local/lib/libmpi.40.dylib' (no such file), '/usr/lib/libmpi.40.dylib' (no such file, not in dyld cache), '/Users/jfoley19/Code/nbr_data/DLPNO_CCSDpT/libmpi.40.dylib' (no such file), '/System/Volumes/Preboot/Cryptexes/OS/Users/jfoley19/Code/nbr_data/DLPNO_CCSDpT/libmpi.40.dylib' (no such file), '/Users/jfoley19/Code/nbr_data/DLPNO_CCSDpT/libmpi.40.dylib' (no such file), '/usr/local/lib/libmpi.40.dylib' (no such file), '/usr/lib/libmpi.40.dylib' (no such file, not in dyld cache)
--------------------------------------------------------------------------
prterun noticed that process rank 0 with PID 82894 on node CHEM9LYY31VAWS exited on
signal 9 (Killed: 9).
--------------------------------------------------------------------------

ORCA finished by error termination in Startup
Calling Command: mpirun -np 16  /Users/jfoley19/Library/orca_6_1_1/orca_startup_mpi meta_dlpno_ccsdpt.int.tmp meta_dlpno_ccsdpt 
[file orca_tools/qcmsg.cpp, line 394]: 
  .... aborting the run

[file orca_tools/qcmsg.cpp, line 394]: 
  .... aborting the run

