
                                 *****************
                                 * O   R   C   A *
                                 *****************

                                            #,                                       
                                            ###                                      
                                            ####                                     
                                            #####                                    
                                            ######                                   
                                           ########,                                 
                                     ,,################,,,,,                         
                               ,,#################################,,                 
                          ,,##########################################,,             
                       ,#########################################, ''#####,          
                    ,#############################################,,   '####,        
                  ,##################################################,,,,####,       
                ,###########''''           ''''###############################       
              ,#####''   ,,,,##########,,,,          '''####'''          '####       
            ,##' ,,,,###########################,,,                        '##       
           ' ,,###''''                  '''############,,,                           
         ,,##''                                '''############,,,,        ,,,,,,###''
      ,#''                                            '''#######################'''  
     '                                                          ''''####''''         
             ,#######,   #######,   ,#######,      ##                                
            ,#'     '#,  ##    ##  ,#'     '#,    #''#        ,####,    ,#,          
            ##       ##  ##   ,#'  ##            #'  '#       #'       ,# #          
            ##       ##  #######   ##           ,######,      #####,      #          
            '#,     ,#'  ##    ##  '#,     ,#' ,#      #,     #,   #      #          
             '#######'   ##     ##  '#######'  #'      '#     '####' #    #          



                #########################################################
                #                        -***-                          #
                #          Department of theory and spectroscopy        #
                #                                                       #
                #                      Frank Neese                      #
                #                                                       #
                #     Directorship, Architecture, Infrastructure        #
                #                    SHARK, DRIVERS                     #
                #        Core code/Algorithms in most modules           #
                #                                                       #
                #        Max Planck Institute fuer Kohlenforschung      #
                #                Kaiser Wilhelm Platz 1                 #
                #                 D-45470 Muelheim/Ruhr                 #
                #                      Germany                          #
                #                                                       #
                #                  All rights reserved                  #
                #                        -***-                          #
                #########################################################


                         Program Version 6.1.1  -  RELEASE   -
                                (GIT: $487d211cc3$)
                          ($2025-11-21 10:33:24 +0100$)


 With contributions from (in alphabetic order):
[Max-Planck-Institut fuer Kohlenforschung]                               
  Daniel Aravena         : Magnetic Suceptibility                        
  Michael Atanasov       : Ab Initio Ligand Field Theory (pilot matlab implementation)
  Alexander A. Auer      : GIAO ZORA, VPT2 properties, NMR spectrum      
  Ute Becker             : All parallelization in ORCA, NUMFREQ, NUMCALC 
  Giovanni Bistoni       : ED, misc. LED, open-shell LED, HFLD           
  Dmytro Bykov           : pre 5.0 version of the SCF Hessian            
  Marcos Casanova-Páez   : Triplet and SCS-CIS(D). UHF-(DLPNO)-IP/EA/STEOM-CCSD. UHF-CVS-IP/STEOM-CCSD   
  Vijay G. Chilkuri      : MRCI spin determinant printing, contributions to CSF-ICE 
  Pauline Colinet        : FMM embedding                                 
  Dipayan Datta          : RHF DLPNO-CCSD density                        
  Achintya Kumar Dutta   : EOM-CC, STEOM-CC                              
  Nicolas Foglia         : Exact transition moments, OPA infrastructure, MCD improvements    
  Dmitry Ganyushin       : Spin-Orbit,Spin-Spin,Magnetic field MRCI      
  Miquel Garcia-Rates    : C-PCM and meta-GGA Hessian, CCSD/C-PCM, Gaussian charge scheme 
  Tiago L. C. Gouveia    : GS-ROHF, GS-ROCIS                             
  Yang Guo               : DLPNO-NEVPT2, F12-NEVPT2, CIM, IAO-localization        
  Andreas Hansen         : Spin unrestricted coupled pair/coupled cluster methods 
  Ingolf Harden          : AUTO-CI MPn and infrastructure                
  Benjamin Helmich-Paris : MC-RPA, TRAH-(SCF,CASSCF), AVAS, COSX integrals, SCF dyn. polar., MC-PDFT, srDFT 
  Lee Huntington         : MR-EOM, pCC                                   
  Robert Izsak           : Overlap fitted RIJCOSX, COSX-SCS-MP3, EOM     
  Riya Kayal             : Wick's Theorem for AUTO-CI, AUTO-CI UHF-CCSDT 
  Emily Kempfer          : AUTO-CI RHF CISDT and CCSDT, approximate NEVPT4
  Christian Kollmar      : KDIIS, OOCD, Brueckner-CCSD(T), CCSD density, CASPT2, CASPT2-K, improved NEVPT2 
  Axel Koslowski         : Symmetry handling                             
  Simone Kossmann        : meta-GGA functionals, TD-DFT gradient, OOMP2, (MP2 Hessian; deprecated post 5.0) 
  Lucas Lang             : DCDCAS, Hyperfine gauge corrections, ICE-SOC+SSC
  Marvin Lechner         : AUTO-CI (C++ implementation), FIC-MRCC        
  Spencer Leger          : CASSCF response                               
  Dagmar Lenk            : GEPOL surface, SMD, ORCA-2-JSON               
  Dimitrios Liakos       : Extrapolation schemes; Compound Job, Property file
  Dimitrios Manganas     : Further ROCIS development; embedding schemes. LFT, Crystal Embedding 
  Dimitrios Pantazis     : SARC Basis sets                               
  Anastasios Papadopoulos: AUTO-CI, single reference methods and gradients 
  Taras Petrenko         : pre 6.0 DFT Hessian and TD-DFT gradient,  ECA, NRVS 
  Petra Pikulova         : Analytic Raman intensities                    
  Peter Pinski           : DLPNO-MP2, DLPNO-MP2 Gradient                 
  Shashank Vittal Rao    : ES-AILFT, MagRelax                            
  Christoph Reimann      : Effective Core Potentials                     
  Marius Retegan         : Local ZFS, SOC                                
  Christoph Riplinger    : Optimizer, TS searches, QM/MM, DLPNO-CCSD(T), (RO)-DLPNO pert. Triples 
  Michael Roemelt        : Original ROCIS implementation, recursive CI coupling coefficients
  Masaaki Saitow         : Open-shell DLPNO-CCSD energy and density      
  Barbara Sandhoefer     : DKH picture change effects                    
  Yorick L. A. Schmerwitz: GMF and freeze-and-release deltaSCF, NEB S-IDPP initial path                    
  Kantharuban Sivalingam : CASSCF convergence/infrastructure, NEVPT2, NEVPT3, NEVPT4(SD), FIC-MRCI and CEPA variants
  Bernardo de Souza      : ESD, SOC TD-DFT                               
  Georgi L. Stoychev     : AutoAux, RI-MP2 NMR, DLPNO-MP2 response, X2C  
  Van Anh Tran           : RI-MP2 g-tensors                              
  Willem Van den Heuvel  : Paramagnetic NMR                              
  Zikuan Wang            : NOTCH, Electric field optimization            
  Frank Wennmohs         : Technical directorship and infrastructure     
  Hang Xu                : AUTO-CI-Response properties                   
                                                                         
[FACCTs GmbH]                                                            
  Markus Bursch, Nicolas Foglia, Miquel Garcia-Rates, Ingolf Harden, Hagen Neugebauer, Anastasios Papadopoulos, 
  Christoph Riplinger, Bernardo de Souza, Georgi L. Stoychev                                                    
                                                                 
  APM, various basis sets, CI-OPT, improved COSX, DLPNO-Multilevel,           
  DOCKER, DRACO, updates on ESD, Fragmentator, GOAT, IRC, LR-CPCM, L-BFGS, MBIS, meta-GGA TD-DFT gradient, ML-optimized integration grids, 
  MM, NACMEs, nearIR, NEB, NEB-TS, NL-DFT gradient (VV10), 2- and 3-layer-ONIOM, interface openCOSMO-RS, QMMM,   
  Crystal-QMMM, RESP, rigid body optimization, SF, symmetry and pop. for TD-DFT, various functionals, SOLVATOR                                   
                                                                         
[Other institutions]                                                     
  V. Asgeirsson          : NEB                                           
  Christoph Bannwarth    : sTDA-DFT, sTD-DFT, PBEh-3c, B97-3c, D3        
  Giovanni Bistoni       : ETS/NOCV, ADLD/ADEX, COVALED                  
  Martin Brehm           : Molecular dynamics                            
  Ronald Cardenas        : ETS/NOCV                                      
  Martina Colucci        : COVALED                                       
  Sebastian Ehlert       : rSCAN, r2SCAN, r2SCAN-3c, D4, dhf basis sets  
  Marvin Friede          : D4 for Fr, Ra, Ac-Lr                          
  Lars Goerigk           : TD-DFT with DH, B97 family of functionals     
  Stefan Grimme          : VdW corrections, initial TS optimization, DFT functionals, gCP, sTDA/sTD-DF 
  Waldemar Hujo          : DFT-NL                                        
  H. Jonsson             : NEB                                           
  Holger Kruse           : gCP                                           
  Marcel Mueller         : wB97X-3c, vDZP basis set                      
  Hagen Neugebauer       : wr2SCAN, Native XTB                           
  Gianluca Regni         : ADLD/ADEX                                     
  Tobias Risthaus        : pre 6.0 range-separated hybrid DFT and stability analysis
  Lukas Wittmann         : regularized MP2, r2SCAN double-hybrids, wr2SCAN        
                                                                         
We gratefully acknowledge several colleagues who have allowed us to      
interface, adapt or use parts of their codes:                            
  Ed Valeev, F. Pavosevic, A. Kumar             : LibInt (2-el integral package), F12 methods 
  Garnet Chan, S. Sharma, J. Yang, R. Olivares  : DMRG                   
  Ulf Ekstrom                                   : XCFun DFT Library      
  Mihaly Kallay                                 : mrcc  (arbitrary order and MRCC methods)
  Frank Weinhold                                : gennbo (NPA and NBO analysis)           
  Simon Mueller                                 : openCOSMO-RS                            
  Christopher J. Cramer and Donald G. Truhlar   : smd solvation model                     
  S Lehtola, MJT Oliveira, MAL Marques          : LibXC Library                           
  Liviu Ungur et al                             : ANISO software                          


 Your calculation uses the libint2 library for the computation of 2-el integrals
 For citations please refer to: http://libint.valeyev.net

 Your ORCA version has been built with support for libXC version: 7.0.0
 For citations please refer to: https://libxc.gitlab.io

 This ORCA versions uses:
   CBLAS   interface :  Fast vector & matrix operations
   LAPACKE interface :  Fast linear algebra routines
   SCALAPACK package :  Parallel linear algebra routines
   Shared memory     :  Shared parallel matrices


  ***********************************
  * Starting time: Tue Jun 23 15:27:39 2026
  * Host name:     CHEM9LYY31VAWS
  * Process ID:    98453
  * Working dir.:  /Users/jfoley19/Code/nbr_data/DLPNO_CCSDpT
  ***********************************

NOTE: MaxCore=8000 MB was set to SCF,MP2,MDCI,CIPSI,MRCI,RASCI and CIS
      => If you want to overwrite this, your respective input block should be placed after the MaxCore statement
================================================================================

----- Orbital basis set information -----
Your calculation utilizes the basis: def2-TZVP
   F. Weigend and R. Ahlrichs, Phys. Chem. Chem. Phys. 7, 3297 (2005).

----- AuxJ basis set information -----
Your calculation utilizes the auxiliary basis: def2/J
   H-Rn: F. Weigend, Phys. Chem. Chem. Phys. 8, 1057 (2006).
   Fr-Lr: K. Eichkorn, F. Weigend, O. Treutler, R. Ahlrichs; Theor. Chem. Acc. 97, 119 (1997).

----- AuxC basis set information -----
Your calculation utilizes the auxiliary basis: def2-TZVP/C
  H-La, Hf-Rn : A. Hellweg, C. Hattig, S. Hofener and W. Klopper, Theor. Chem. Acc. 117, 587 (2007).
        Ce-Lu : J. Chmela and M. E. Harding, Mol. Phys. (2018).

================================================================================
                                        WARNINGS
                       Please study these warnings very carefully!
================================================================================


WARNING: Post HF methods need fully converged wavefunctions
  ===> : Setting SCFConvForced true
         You can overwrite this default with %scf ConvForced false 


WARNING: MDCI localization with Augmented Hessian Foster-Boys
  ===> : Switching off randomization!

================================================================================
                                       INPUT FILE
================================================================================
NAME = input.inp
|  1> ! DLPNO-CCSD(T) def2-TZVP def2/J def2-TZVP/C RIJCOSX TightSCF TightPNO
|  2> 
|  3> %maxcore 8000
|  4> 
|  5> %scf
|  6>   MaxIter 300
|  7> end
|  8> 
|  9> %scf
| 10>   MaxIter 300
| 11> end
| 12> 
| 13> * xyz 1 1
| 14> C   -0.929257263947    2.021527608578    0.744707683350
| 15> C    0.476075706053    1.968481358578    0.682883583350
| 16> C    1.153033166053    0.732862858578    0.671089073350
| 17> C    0.486309286053   -0.455398891422    0.707696283350
| 18> C   -1.646688783947    0.850023888578    0.786483593350
| 19> H   -1.430027043947    2.980198348578    0.754644003350
| 20> H    1.068570756053    2.878318968578    0.644324213350
| 21> H    1.030908186053   -1.394630481422    0.699715393350
| 22> H   -2.730391873947    0.862207158578    0.834726773350
| 23> N    2.627601876053    0.732774608578    0.609077593350
| 24> O    3.188360516053   -0.377859281422    0.588451963350
| 25> O    3.186221516053    1.845711198578    0.586422223350
| 26> C   -0.982368843947   -0.464026221422    0.760065283350
| 27> H   -1.395507033947   -1.190671951422    1.465426213350
| 28> Br  -1.494673453947   -1.187920261422   -1.064256256650
| 29> *
| 30> 
| 31>                          ****END OF INPUT****
================================================================================

                       ****************************
                       * Single Point Calculation *
                       ****************************

---------------------------------
CARTESIAN COORDINATES (ANGSTROEM)
---------------------------------
  C     -0.929257    2.021528    0.744708
  C      0.476076    1.968481    0.682884
  C      1.153033    0.732863    0.671089
  C      0.486309   -0.455399    0.707696
  C     -1.646689    0.850024    0.786484
  H     -1.430027    2.980198    0.754644
  H      1.068571    2.878319    0.644324
  H      1.030908   -1.394630    0.699715
  H     -2.730392    0.862207    0.834727
  N      2.627602    0.732775    0.609078
  O      3.188361   -0.377859    0.588452
  O      3.186222    1.845711    0.586422
  C     -0.982369   -0.464026    0.760065
  H     -1.395507   -1.190672    1.465426
  Br    -1.494673   -1.187920   -1.064256

----------------------------
CARTESIAN COORDINATES (A.U.)
----------------------------
  NO LB      ZA    FRAG     MASS         X           Y           Z
   0 C     6.0000    0    12.011   -1.756042    3.820134    1.407294
   1 C     6.0000    0    12.011    0.899653    3.719891    1.290463
   2 C     6.0000    0    12.011    2.178917    1.384910    1.268175
   3 C     6.0000    0    12.011    0.918991   -0.860579    1.337352
   4 C     6.0000    0    12.011   -3.111791    1.606312    1.486239
   5 H     1.0000    0     1.008   -2.702359    5.631759    1.426070
   6 H     1.0000    0     1.008    2.019306    5.439235    1.217596
   7 H     1.0000    0     1.008    1.948134   -2.635470    1.322270
   8 H     1.0000    0     1.008   -5.159693    1.629335    1.577405
   9 N     7.0000    0    14.007    4.965448    1.384743    1.150990
  10 O     8.0000    0    15.999    6.025128   -0.714051    1.112013
  11 O     8.0000    0    15.999    6.021086    3.487889    1.108177
  12 C     6.0000    0    12.011   -1.856408   -0.876882    1.436315
  13 H     1.0000    0     1.008   -2.637126   -2.250044    2.769254
  14 Br   35.0000    0    79.900   -2.824523   -2.244844   -2.011153

--------------------------------
INTERNAL COORDINATES (ANGSTROEM)
--------------------------------
 C      0   0   0     0.000000000000     0.00000000     0.00000000
 C      1   0   0     1.407692040380     0.00000000     0.00000000
 C      2   1   0     1.408958335317   120.86895091     0.00000000
 C      3   2   1     1.363021205447   121.95724932     0.53252904
 C      1   2   3     1.374363190179   119.36354275   359.63678141
 H      1   2   3     1.081627796771   119.73603594   179.88574039
 H      2   1   3     1.086435311401   120.96029473   180.08368919
 H      4   3   2     1.085729080453   120.57066390   180.12720706
 H      5   1   2     1.084844792475   120.87986791   179.98010614
 N      3   2   1     1.475872051348   118.71456726   180.16291538
 O     10   3   2     1.244340510698   116.80780421   180.62009180
 O     10   3   2     1.245470602361   116.66900883     0.81552330
 C      4   3   2     1.469636823342   119.66362908     0.05213276
 H     13   4   3     1.093723558553   113.85166511   223.00758740
 Br    13   4   3     2.028454504267   102.85246486   110.76912096

---------------------------
INTERNAL COORDINATES (A.U.)
---------------------------
 C      0   0   0     0.000000000000     0.00000000     0.00000000
 C      1   0   0     2.660152437219     0.00000000     0.00000000
 C      2   1   0     2.662545387854   120.86895091     0.00000000
 C      3   2   1     2.575736793023   121.95724932     0.53252904
 C      1   2   3     2.597170037981   119.36354275   359.63678141
 H      1   2   3     2.043980314735   119.73603594   179.88574039
 H      2   1   3     2.053065200770   120.96029473   180.08368919
 H      4   3   2     2.051730617689   120.57066390   180.12720706
 H      5   1   2     2.050059555588   120.87986791   179.98010614
 N      3   2   1     2.788993985757   118.71456726   180.16291538
 O     10   3   2     2.351462782563   116.80780421   180.62009180
 O     10   3   2     2.353598346311   116.66900883     0.81552330
 C      4   3   2     2.777211112443   119.66362908     0.05213276
 H     13   4   3     2.066837991883   113.85166511   223.00758740
 Br    13   4   3     3.833223488184   102.85246486   110.76912096

---------------------
BASIS SET INFORMATION
---------------------
There are 5 groups of distinct atoms

 Group   1 Type C   : 11s6p2d1f contracted to 5s3p2d1f pattern {62111/411/11/1}
 Group   2 Type H   : 5s1p contracted to 3s1p pattern {311/1}
 Group   3 Type N   : 11s6p2d1f contracted to 5s3p2d1f pattern {62111/411/11/1}
 Group   4 Type O   : 11s6p2d1f contracted to 5s3p2d1f pattern {62111/411/11/1}
 Group   5 Type Br  : 17s13p8d1f contracted to 6s5p4d1f pattern {842111/64111/5111/1}

Atom   0C    basis set group =>   1
Atom   1C    basis set group =>   1
Atom   2C    basis set group =>   1
Atom   3C    basis set group =>   1
Atom   4C    basis set group =>   1
Atom   5H    basis set group =>   2
Atom   6H    basis set group =>   2
Atom   7H    basis set group =>   2
Atom   8H    basis set group =>   2
Atom   9N    basis set group =>   3
Atom  10O    basis set group =>   4
Atom  11O    basis set group =>   4
Atom  12C    basis set group =>   1
Atom  13H    basis set group =>   2
Atom  14Br   basis set group =>   5
---------------------------------
AUXILIARY/J BASIS SET INFORMATION
---------------------------------
There are 5 groups of distinct atoms

 Group   1 Type C   : 12s5p4d2f1g contracted to 6s4p3d1f1g pattern {711111/2111/211/2/1}
 Group   2 Type H   : 5s2p1d contracted to 3s1p1d pattern {311/2/1}
 Group   3 Type N   : 12s5p4d2f1g contracted to 6s4p3d1f1g pattern {711111/2111/211/2/1}
 Group   4 Type O   : 12s5p4d2f1g contracted to 6s4p3d1f1g pattern {711111/2111/211/2/1}
 Group   5 Type Br  : 19s5p5d3f1g contracted to 8s4p3d2f1g pattern {121111111/2111/311/21/1}

Atom   0C    basis set group =>   1
Atom   1C    basis set group =>   1
Atom   2C    basis set group =>   1
Atom   3C    basis set group =>   1
Atom   4C    basis set group =>   1
Atom   5H    basis set group =>   2
Atom   6H    basis set group =>   2
Atom   7H    basis set group =>   2
Atom   8H    basis set group =>   2
Atom   9N    basis set group =>   3
Atom  10O    basis set group =>   4
Atom  11O    basis set group =>   4
Atom  12C    basis set group =>   1
Atom  13H    basis set group =>   2
Atom  14Br   basis set group =>   5
---------------------------------
AUXILIARY/C BASIS SET INFORMATION
---------------------------------
There are 5 groups of distinct atoms

 Group   1 Type C   : 8s6p5d3f1g contracted to 8s6p4d3f1g pattern {11111111/111111/2111/111/1}
 Group   2 Type H   : 4s3p2d contracted to 4s2p1d pattern {1111/21/2}
 Group   3 Type N   : 8s6p5d3f1g contracted to 8s6p4d3f1g pattern {11111111/111111/2111/111/1}
 Group   4 Type O   : 8s6p5d3f1g contracted to 8s6p4d3f1g pattern {11111111/111111/2111/111/1}
 Group   5 Type Br  : 10s9p8d6f4g1h contracted to 10s9p8d5f4g1h pattern {1111111111/111111111/11111111/21111/1111/1}

Atom   0C    basis set group =>   1
Atom   1C    basis set group =>   1
Atom   2C    basis set group =>   1
Atom   3C    basis set group =>   1
Atom   4C    basis set group =>   1
Atom   5H    basis set group =>   2
Atom   6H    basis set group =>   2
Atom   7H    basis set group =>   2
Atom   8H    basis set group =>   2
Atom   9N    basis set group =>   3
Atom  10O    basis set group =>   4
Atom  11O    basis set group =>   4
Atom  12C    basis set group =>   1
Atom  13H    basis set group =>   2
Atom  14Br   basis set group =>   5

Checking for AutoStart:
The File: input.gbw exists
Trying to determine its content:
     ... Fine, the file contains calculation information
     ... Fine, the calculation information was read
     ... Fine, the file contains a basis set
     ... Fine, the basis set was read
     ... Fine, the file contains a geometry
     ... Fine, the geometry was read
     ... The file does not contain orbitals - skipping AutoStart
------------------------------------------------------------------------------
                             ORCA STARTUP CALCULATIONS
                           -- RI-GTO INTEGRALS CHOSEN --
------------------------------------------------------------------------------
------------------------------------------------------------------------------
                   ___                                                        
                  /   \      - P O W E R E D   B Y -                         
                 /     \                                                     
                 |  |  |   _    _      __       _____    __    __             
                 |  |  |  | |  | |    /  \     |  _  \  |  |  /  |          
                  \  \/   | |  | |   /    \    | | | |  |  | /  /          
                 / \  \   | |__| |  /  /\  \   | |_| |  |  |/  /          
                |  |  |   |  __  | /  /__\  \  |    /   |      \           
                |  |  |   | |  | | |   __   |  |    \   |  |\   \          
                \     /   | |  | | |  |  |  |  | |\  \  |  | \   \       
                 \___/    |_|  |_| |__|  |__|  |_| \__\ |__|  \__/        
                                                                              
                      - O R C A' S   B I G   F R I E N D -                    
                                      &                                       
                       - I N T E G R A L  F E E D E R -                       
                                                                              
 v1 FN, 2020, v2 2021, v3 2022-2024                                           
------------------------------------------------------------------------------


----------------------
SHARK INTEGRAL PACKAGE
----------------------

Number of atoms                             ...     15
Number of basis functions                   ...    357
Number of shells                            ...    135
Maximum angular momentum                    ...      3
Integral batch strategy                     ... SHARK/LIBINT Hybrid
RI-J (if used) integral strategy            ... SPLIT-RIJ (Revised 2003 algorithm where possible)
Printlevel                                  ...      1
Contraction scheme used                     ... SEGMENTED contraction
Prescreening option                         ... SCHWARTZ
   Thresh                                   ... 2.500e-11
   Tcut                                     ... 2.500e-12
   Tpresel                                  ... 2.500e-12 
Coulomb Range Separation                    ... NOT USED
Exchange Range Separation                   ... NOT USED
Multipole approximations                    ... NOT USED
Finite Nucleus Model                        ... NOT USED
CABS basis                                  ... NOT available
Auxiliary Coulomb fitting basis             ... AVAILABLE
   # of basis functions in Aux-J            ...    554
   # of shells in Aux-J                     ...    178
   Maximum angular momentum in Aux-J        ...      4
Auxiliary J/K fitting basis                 ... NOT available
Auxiliary Correlation fitting basis         ... AVAILABLE
   # of basis functions in Aux-C            ...    918
   # of shells in Aux-C                     ...    270
   Maximum angular momentum in Aux-C        ...      5
Auxiliary 'external' fitting basis          ... NOT available

Checking pre-screening integrals            ... done (  0.0 sec) Dimension = 135
   => SHARK Basis and OBASIS are compatible. Storing Pre-screening
Shell pair information
Shell pair cut-off parameter TPreSel        ...   2.5e-12
Total number of shell pairs                 ...      9180
Shell pairs after pre-screening             ...      7993
Total number of primitive shell pairs       ...     31404
Primitive shell pairs kept                  ...     19282
          la=0 lb=0:   1815 shell pairs
          la=1 lb=0:   2169 shell pairs
          la=1 lb=1:    657 shell pairs
          la=2 lb=0:   1249 shell pairs
          la=2 lb=1:    739 shell pairs
          la=2 lb=2:    223 shell pairs
          la=3 lb=0:    560 shell pairs
          la=3 lb=1:    337 shell pairs
          la=3 lb=2:    195 shell pairs
          la=3 lb=3:     49 shell pairs

Checking whether 4 symmetric matrices of dimension 357 fit in memory
:Max Core in MB      =   8000.00
 MB in use           =     14.36
 MB left             =   7985.64
 MB needed           =      1.95
 Data fit in memory  = YES
Calculating RI/J V-Matrix + Cholesky decomp.... done (  0.0 sec)
Calculating RI/C V-Matrix + Cholesky decomp.... done (  0.0 sec)
Calculating Nuclear repulsion               ... done (  0.0 sec) ENN=    739.211839278662 Eh

Diagonalization of the overlap matrix:
Smallest eigenvalue                        ... 1.476e-05
Time for diagonalization                   ...    0.010 sec
Threshold for overlap eigenvalues          ... 1.000e-07
Number of eigenvalues below threshold      ... 0
Time for construction of square roots      ...    0.001 sec
Total time needed                          ...    0.012 sec

-------------------
DFT GRID GENERATION
-------------------

General Integration Accuracy     IntAcc      ... 4.388
Radial Grid Type                 RadialGrid  ... OptM3 with GC (2021)
Angular Grid (max. ang.)         AngularGrid ... 4 (Lebedev-302)
Angular grid pruning method      GridPruning ... 4 (adaptive)
Weight generation scheme         WeightScheme... mBecke (2022)
Basis function cutoff            BFCut       ... 1.0000e-11
Integration weight cutoff        WCut        ... 1.0000e-14
Partially contracted basis set               ... off
Rotationally invariant grid construction     ... off
Angular grids for H and He will be reduced by one unit
Core-polarized basis detected: some atoms will have their core
                               angular grid increased.

Total number of grid points                  ...    81559
Total number of batches                      ...     1282
Average number of points per batch           ...       63
Average number of grid points per atom       ...     5437

--------------------
COSX GRID GENERATION
--------------------

GRIDX 1
-------
General Integration Accuracy     IntAcc      ... 3.816
Radial Grid Type                 RadialGrid  ... OptM3 with GC (2021)
Angular Grid (max. ang.)         AngularGrid ... 1 (Lebedev-50)
Angular grid pruning method      GridPruning ... 4 (adaptive)
Weight generation scheme         WeightScheme... mBecke (2022)
Basis function cutoff            BFCut       ... 1.0000e-11
Integration weight cutoff        WCut        ... 1.0000e-14
Partially contracted basis set               ... on
Rotationally invariant grid construction     ... off
Angular grids for H and He will be reduced by one unit
Core-polarized basis detected: some atoms will have their core
                               angular grid increased.

Total number of grid points                  ...    15053
Total number of batches                      ...      125
Average number of points per batch           ...      120
Average number of grid points per atom       ...     1004
UseSFitting                                  ... on

GRIDX 2
-------
General Integration Accuracy     IntAcc      ... 4.020
Radial Grid Type                 RadialGrid  ... OptM3 with GC (2021)
Angular Grid (max. ang.)         AngularGrid ... 2 (Lebedev-110)
Angular grid pruning method      GridPruning ... 4 (adaptive)
Weight generation scheme         WeightScheme... mBecke (2022)
Basis function cutoff            BFCut       ... 1.0000e-11
Integration weight cutoff        WCut        ... 1.0000e-14
Partially contracted basis set               ... on
Rotationally invariant grid construction     ... off
Angular grids for H and He will be reduced by one unit
Core-polarized basis detected: some atoms will have their core
                               angular grid increased.

Total number of grid points                  ...    26084
Total number of batches                      ...      210
Average number of points per batch           ...      124
Average number of grid points per atom       ...     1739
UseSFitting                                  ... on

GRIDX 3
-------
General Integration Accuracy     IntAcc      ... 4.338
Radial Grid Type                 RadialGrid  ... OptM3 with GC (2021)
Angular Grid (max. ang.)         AngularGrid ... 3 (Lebedev-194)
Angular grid pruning method      GridPruning ... 4 (adaptive)
Weight generation scheme         WeightScheme... mBecke (2022)
Basis function cutoff            BFCut       ... 1.0000e-11
Integration weight cutoff        WCut        ... 1.0000e-14
Partially contracted basis set               ... on
Rotationally invariant grid construction     ... off
Angular grids for H and He will be reduced by one unit
Core-polarized basis detected: some atoms will have their core
                               angular grid increased.

Total number of grid points                  ...    50215
Total number of batches                      ...      399
Average number of points per batch           ...      125
Average number of grid points per atom       ...     3348
UseSFitting                                  ... on
Grids setup in   1.1 sec
Initializing property integral containers    ... done (  0.0 sec)

SHARK setup successfully completed in   1.2 seconds

Maximum memory used throughout the entire STARTUP-calculation: 59.3 MB
-------------------------------------------------------------------------------
                                 ORCA GUESS
                   Start orbitals & Density for SCF / CASSCF
-------------------------------------------------------------------------------

------------
SCF SETTINGS
------------
Hamiltonian:
 Ab initio Hamiltonian  Method          .... Hartree-Fock(GTOs)
 RI-approximation to the Coulomb term is turned on
   Number of AuxJ basis functions       .... 554
   RIJ-COSX (HFX calculated with COS-X)).... on


General Settings:
 Integral files         IntName         .... input
 Hartree-Fock type      HFTyp           .... RHF
 Total Charge           Charge          ....    1
 Multiplicity           Mult            ....    1
 Number of Electrons    NEL             ....   98
 Basis Dimension        Dim             ....  357
 Nuclear Repulsion      ENuc            ....    739.2118392787 Eh

Convergence Acceleration:
 AO-DIIS                CNVDIIS         .... on
   Start iteration      DIISMaxIt       ....    12
   Startup error        DIISStart       ....  0.200000
   # of expansion vecs  DIISMaxEq       ....     5
   Bias factor          DIISBfac        ....   1.050
   Max. coefficient     DIISMaxC        ....  10.000
 MO-DIIS                CNVKDIIS        .... off
 Trust-Rad. Augm. Hess. CNVTRAH         .... auto
   Auto Start mean grad. ratio tolernc. ....  1.125000
   Auto Start start iteration           ....    50
   Auto Start num. interpolation iter.  ....    10
   Max. Number of Micro iterations      ....    24
   Max. Number of Macro iterations      .... Maxiter - #DIIS iter
   Number of Davidson start vectors     ....     2
   Converg. threshold    (grad. norm)   ....   1.000e-05
   Grad. Scal. Fac. for Micro threshold ....   0.100
   Minimum threshold for Micro iter.    ....   1.000e-02
   NR start threshold (gradient norm)   ....   1.000e-04
   Initial trust radius                 ....   0.400
   Minimum AH scaling param. (alpha)    ....   1.000
   Maximum AH scaling param. (alpha)    .... 1000.000
   Quad. conv. algorithm                .... NR
   White noise on init. David. guess    .... on
   Maximum white noise                  ....   0.010
   Pseudo random numbers                .... off
   Inactive MOs                         .... canonical
   Orbital update algorithm             .... Taylor
   Preconditioner                       .... Diag
   Full preconditioner red. dimension   ....   250
 SOSCF                 CNVSOSCF           .... on
   Start iteration     SOSCFMaxIt         ....   150
   Startup grad/error  SOSCFStart         ....  0.003300
   Hessian update      SOSCFHessUp        .... L-BFGS
   Autom. constraints  SOSCFAutoConstrain .... off
 Level Shifting         CNVShift        .... on
   Level shift para.    LevelShift      ....    0.2500
   Turn off err/grad.   ShiftErr        ....    0.0010
 Zerner damping         CNVZerner       .... off
 Static damping         CNVDamp         .... on
   Fraction old density DampFac         ....    0.7000
   Max. Damping (<1)    DampMax         ....    0.9800
   Min. Damping (>=0)   DampMin         ....    0.0000
   Turn off err/grad.   DampErr         ....    0.1000

SCF Procedure:
 Maximum # iterations   MaxIter         ....   300
 SCF integral mode      SCFMode         .... Direct
   Integral package                     .... SHARK and LIBINT hybrid scheme
 Reset frequency        DirectResetFreq ....    20
 Integral Threshold     Thresh          ....  2.500e-11 Eh
 Primitive CutOff       TCut            ....  2.500e-12 Eh

Convergence Tolerance:
 Convergence Check Mode ConvCheckMode   .... Total+1el-Energy
 Convergence forced     ConvForced      .... 1
 Energy Change          TolE            ....  1.000e-08 Eh
 1-El. energy change                    ....  1.000e-05 Eh
 Orbital Gradient       TolG            ....  1.000e-05
 Orbital Rotation angle TolX            ....  1.000e-05
 DIIS Error             TolErr          ....  5.000e-07

------------------------------
INITIAL GUESS: MODEL POTENTIAL
------------------------------
Loading Hartree-Fock densities                     ... done
Calculating cut-offs                               ... done
Initializing the effective Hamiltonian             ... done
Setting up the integral package (SHARK)            ... done
Starting the Coulomb interaction                   ... done (   0.2 sec)
Making the grid                                    ... done (   0.1 sec)
Mapping shells                                     ... done
Starting the XC term evaluation                    ... done (   0.2 sec)
Transforming the Hamiltonian                       ... done (   0.0 sec)
Diagonalizing the Hamiltonian                      ... done (   0.0 sec)
Back transforming the eigenvectors                 ... done (   0.0 sec)
Now organizing SCF variables                       ... done
                      ------------------
                      INITIAL GUESS DONE (   0.6 sec)
                      ------------------
             **** ENERGY FILE WAS UPDATED (input.en.tmp) ****
Finished Guess after   0.6 sec
Maximum memory used throughout the entire GUESS-calculation: 36.3 MB

-------------------------------------------------------------------------------------------
                                      ORCA LEAN-SCF
                              memory conserving SCF solver
-------------------------------------------------------------------------------------------

----------------------------------------D-I-I-S--------------------------------------------
Iteration    Energy (Eh)           Delta-E    RMSDP     MaxDP     DIISErr   Damp  Time(sec)
-------------------------------------------------------------------------------------------
               ***  Starting incremental Fock matrix formation  ***
    1    -3006.0938614608348871     0.00e+00  1.17e-03  3.30e-02  3.05e-01  0.700   9.7
    2    -3006.2057390116019633    -1.12e-01  9.15e-04  2.49e-02  2.19e-01  0.700   5.1
                               ***Turning on AO-DIIS***
    3    -3006.2722117540074578    -6.65e-02  6.81e-04  2.80e-02  1.63e-01  0.700   5.1
    4    -3006.3161583930100278    -4.39e-02  5.51e-04  2.48e-02  1.14e-01  0.700   5.0
    5    -3006.3472954808289614    -3.11e-02  4.32e-04  1.92e-02  7.98e-02  0.700   5.0
    6    -3006.3696804799665188    -2.24e-02  1.10e-03  4.81e-02  5.58e-02  0.000   4.8
    7    -3006.4244318852361175    -5.48e-02  1.14e-04  4.79e-03  3.96e-03  0.000   5.2
                              *** Initializing SOSCF ***
---------------------------------------S-O-S-C-F--------------------------------------
Iteration    Energy (Eh)           Delta-E    RMSDP     MaxDP     MaxGrad    Time(sec)
--------------------------------------------------------------------------------------
    8    -3006.4247296119210660    -2.98e-04  8.82e-05  3.62e-03  2.53e-03     4.6
               *** Restarting incremental Fock matrix formation ***
    9    -3006.4248957666400202    -1.66e-04  8.79e-05  2.78e-03  1.33e-03     9.8
   10    -3006.4249546069299868    -5.88e-05  9.88e-05  3.47e-03  6.63e-04     7.7
   11    -3006.4249862487145037    -3.16e-05  4.73e-05  1.27e-03  1.92e-04     7.7
   12    -3006.4249888087510953    -2.56e-06  1.19e-05  5.98e-04  7.14e-05     7.8
   13    -3006.4249891171189120    -3.08e-07  4.09e-06  1.47e-04  3.56e-05     7.3
   14    -3006.4249891936069616    -7.65e-08  2.37e-06  5.90e-05  1.30e-05     6.5
   15    -3006.4249892063044172    -1.27e-08  6.95e-07  2.18e-05  6.18e-06     6.1
   16    -3006.4249892104639912    -4.16e-09  4.28e-07  1.73e-05  3.07e-06     5.5
                 **** Energy Check signals convergence ****

               *****************************************************
               *                     SUCCESS                       *
               *           SCF CONVERGED AFTER  16 CYCLES          *
               *****************************************************

Recomputing exchange energy using gridx3       ... done (   17.127 sec)
Old exchange energy                            :   -145.220586728 Eh
New exchange energy                            :   -145.220547523 Eh
Exchange energy change after final integration :      0.000039205 Eh
Total energy after final integration           :  -3006.424950003 Eh
             **** ENERGY FILE WAS UPDATED (input.en.tmp) ****

----------------
TOTAL SCF ENERGY
----------------

Total Energy       :      -3006.42495000258714 Eh          -81808.98198 eV

Components:
Nuclear Repulsion  :        739.21183927866184 Eh           20114.97677 eV
Electronic Energy  :      -3745.63682848601093 Eh         -101923.95982 eV
One Electron Energy:      -5625.47530563125838 Eh         -153076.96535 eV
Two Electron Energy:       1879.83847714524745 Eh           51153.00553 eV

Virial components:
Potential Energy   :      -6011.88546358255007 Eh         -163591.72031 eV
Kinetic Energy     :       3005.46051357996248 Eh           81782.73833 eV
Virial Ratio       :          2.00032089472421

---------------
SCF CONVERGENCE
---------------

  Last Energy change         ...    4.1596e-09  Tolerance :   1.0000e-08
  Last MAX-Density change    ...    1.7256e-05  Tolerance :   1.0000e-07
  Last RMS-Density change    ...    4.2830e-07  Tolerance :   5.0000e-09
  Last DIIS Error            ...    2.5312e-03  Tolerance :   5.0000e-07
  Last Orbital Gradient      ...    3.0696e-06  Tolerance :   1.0000e-05
  Last Orbital Rotation      ...    1.2780e-05  Tolerance :   1.0000e-05


----------------
ORBITAL ENERGIES
----------------

  NO   OCC          E(Eh)            E(eV) 
   0   2.0000    -490.225653    -13339.7182 
   1   2.0000     -65.366545     -1778.7141 
   2   2.0000     -58.721487     -1597.8929 
   3   2.0000     -58.720327     -1597.8613 
   4   2.0000     -58.720258     -1597.8595 
   5   2.0000     -20.765401      -565.0553 
   6   2.0000     -20.763879      -565.0139 
   7   2.0000     -16.017115      -435.8479 
   8   2.0000     -11.534421      -313.8676 
   9   2.0000     -11.529273      -313.7275 
  10   2.0000     -11.526387      -313.6489 
  11   2.0000     -11.520015      -313.4755 
  12   2.0000     -11.511268      -313.2375 
  13   2.0000     -11.463071      -311.9260 
  14   2.0000     -10.038812      -273.1700 
  15   2.0000      -7.652256      -208.2285 
  16   2.0000      -7.642475      -207.9623 
  17   2.0000      -7.642417      -207.9607 
  18   2.0000      -3.395678       -92.4011 
  19   2.0000      -3.391086       -92.2761 
  20   2.0000      -3.390971       -92.2730 
  21   2.0000      -3.378412       -91.9313 
  22   2.0000      -3.378404       -91.9310 
  23   2.0000      -1.745056       -47.4854 
  24   2.0000      -1.546696       -42.0877 
  25   2.0000      -1.417342       -38.5678 
  26   2.0000      -1.308504       -35.6062 
  27   2.0000      -1.284900       -34.9639 
  28   2.0000      -1.176454       -32.0129 
  29   2.0000      -1.155241       -31.4357 
  30   2.0000      -1.079873       -29.3848 
  31   2.0000      -1.030352       -28.0373 
  32   2.0000      -0.962076       -26.1794 
  33   2.0000      -0.912834       -24.8395 
  34   2.0000      -0.900359       -24.5000 
  35   2.0000      -0.873164       -23.7600 
  36   2.0000      -0.866119       -23.5683 
  37   2.0000      -0.857127       -23.3236 
  38   2.0000      -0.838603       -22.8195 
  39   2.0000      -0.781893       -21.2764 
  40   2.0000      -0.759636       -20.6707 
  41   2.0000      -0.732511       -19.9326 
  42   2.0000      -0.658724       -17.9248 
  43   2.0000      -0.655498       -17.8370 
  44   2.0000      -0.653814       -17.7912 
  45   2.0000      -0.626918       -17.0593 
  46   2.0000      -0.604157       -16.4400 
  47   2.0000      -0.602639       -16.3986 
  48   2.0000      -0.573075       -15.5942 
  49   0.0000      -0.224374        -6.1055 
  50   0.0000      -0.129009        -3.5105 
  51   0.0000      -0.071133        -1.9356 
  52   0.0000      -0.040085        -1.0908 
  53   0.0000      -0.013468        -0.3665 
  54   0.0000       0.008194         0.2230 
  55   0.0000       0.021117         0.5746 
  56   0.0000       0.036303         0.9879 
  57   0.0000       0.042380         1.1532 
  58   0.0000       0.058268         1.5856 
  59   0.0000       0.077005         2.0954 
*Only the first 10 virtual orbitals were printed.

                    ********************************
                    * MULLIKEN POPULATION ANALYSIS *
                    ********************************

-----------------------
MULLIKEN ATOMIC CHARGES
-----------------------
   0 C :   -0.102061
   1 C :    0.028860
   2 C :   -0.018491
   3 C :   -0.110615
   4 C :   -0.097258
   5 H :    0.208025
   6 H :    0.254291
   7 H :    0.252545
   8 H :    0.219731
   9 N :    0.627240
  10 O :   -0.367145
  11 O :   -0.370725
  12 C :    0.209200
  13 H :    0.224307
  14 Br:    0.042095
Sum of atomic charges:    1.0000000

--------------------------------
MULLIKEN REDUCED ORBITAL CHARGES
--------------------------------
  0 C s       :     3.093783  s :     3.093783
      pz      :     1.024161  p :     2.910273
      px      :     0.896365
      py      :     0.989747
      dz2     :     0.005741  d :     0.089603
      dxz     :     0.006279
      dyz     :     0.010576
      dx2y2   :     0.038562
      dxy     :     0.028445
      f0      :     0.001740  f :     0.008401
      f+1     :     0.001045
      f-1     :     0.000933
      f+2     :     0.000227
      f-2     :     0.000348
      f+3     :     0.001982
      f-3     :     0.002125

  1 C s       :     3.205371  s :     3.205371
      pz      :     0.548074  p :     2.638251
      px      :     1.017003
      py      :     1.073175
      dz2     :     0.007211  d :     0.119270
      dxz     :     0.024750
      dyz     :     0.016083
      dx2y2   :     0.037991
      dxy     :     0.033236
      f0      :     0.001341  f :     0.008247
      f+1     :     0.000822
      f-1     :     0.000703
      f+2     :     0.001099
      f-2     :     0.000475
      f+3     :     0.001868
      f-3     :     0.001938

  2 C s       :     3.013749  s :     3.013749
      pz      :     1.115909  p :     2.852648
      px      :     0.772077
      py      :     0.964662
      dz2     :     0.006632  d :     0.139198
      dxz     :     0.018373
      dyz     :     0.011437
      dx2y2   :     0.047125
      dxy     :     0.055631
      f0      :     0.002255  f :     0.012895
      f+1     :     0.001610
      f-1     :     0.001227
      f+2     :     0.000728
      f-2     :     0.000423
      f+3     :     0.002804
      f-3     :     0.003848

  3 C s       :     3.277389  s :     3.277389
      pz      :     0.619759  p :     2.706858
      px      :     1.002246
      py      :     1.084854
      dz2     :     0.008196  d :     0.118060
      dxz     :     0.018634
      dyz     :     0.021241
      dx2y2   :     0.040598
      dxy     :     0.029390
      f0      :     0.001308  f :     0.008308
      f+1     :     0.000956
      f-1     :     0.000698
      f+2     :     0.000977
      f-2     :     0.000586
      f+3     :     0.001851
      f-3     :     0.001932

  4 C s       :     3.266658  s :     3.266658
      pz      :     0.648151  p :     2.710561
      px      :     1.088293
      py      :     0.974116
      dz2     :     0.007160  d :     0.111909
      dxz     :     0.009146
      dyz     :     0.027847
      dx2y2   :     0.033530
      dxy     :     0.034227
      f0      :     0.001226  f :     0.008130
      f+1     :     0.000732
      f-1     :     0.000927
      f+2     :     0.000362
      f-2     :     0.001025
      f+3     :     0.001954
      f-3     :     0.001904

  5 H s       :     0.767129  s :     0.767129
      pz      :     0.004230  p :     0.024846
      px      :     0.006081
      py      :     0.014535

  6 H s       :     0.721036  s :     0.721036
      pz      :     0.001853  p :     0.024674
      px      :     0.008696
      py      :     0.014125

  7 H s       :     0.722643  s :     0.722643
      pz      :     0.002254  p :     0.024812
      px      :     0.008016
      py      :     0.014543

  8 H s       :     0.755999  s :     0.755999
      pz      :     0.002531  p :     0.024270
      px      :     0.018623
      py      :     0.003116

  9 N s       :     3.195726  s :     3.195726
      pz      :     0.993975  p :     2.892623
      px      :     1.056343
      py      :     0.842304
      dz2     :     0.003794  d :     0.270237
      dxz     :     0.015901
      dyz     :     0.082782
      dx2y2   :     0.104957
      dxy     :     0.062804
      f0      :     0.001689  f :     0.014174
      f+1     :     0.000856
      f-1     :     0.001086
      f+2     :     0.001081
      f-2     :     0.002175
      f+3     :     0.002204
      f-3     :     0.005082

 10 O s       :     3.934052  s :     3.934052
      pz      :     1.444556  p :     4.381055
      px      :     1.721062
      py      :     1.215437
      dz2     :     0.005849  d :     0.048354
      dxz     :     0.003997
      dyz     :     0.010268
      dx2y2   :     0.011747
      dxy     :     0.016494
      f0      :     0.000305  f :     0.003684
      f+1     :     0.000144
      f-1     :     0.000509
      f+2     :     0.000223
      f-2     :     0.000452
      f+3     :     0.001382
      f-3     :     0.000669

 11 O s       :     3.935801  s :     3.935801
      pz      :     1.445199  p :     4.383087
      px      :     1.725025
      py      :     1.212863
      dz2     :     0.005819  d :     0.048179
      dxz     :     0.004055
      dyz     :     0.010162
      dx2y2   :     0.011775
      dxy     :     0.016368
      f0      :     0.000302  f :     0.003658
      f+1     :     0.000142
      f-1     :     0.000508
      f+2     :     0.000220
      f-2     :     0.000445
      f+3     :     0.001373
      f-3     :     0.000667

 12 C s       :     2.882409  s :     2.882409
      pz      :     0.902511  p :     2.754997
      px      :     0.901154
      py      :     0.951332
      dz2     :     0.026259  d :     0.145602
      dxz     :     0.025027
      dyz     :     0.025704
      dx2y2   :     0.037622
      dxy     :     0.030991
      f0      :     0.000816  f :     0.007791
      f+1     :     0.001045
      f-1     :     0.001144
      f+2     :     0.000831
      f-2     :     0.000436
      f+3     :     0.001792
      f-3     :     0.001728

 13 H s       :     0.750852  s :     0.750852
      pz      :     0.009203  p :     0.024841
      px      :     0.005480
      py      :     0.010158

 14 Brs       :     7.975763  s :     7.975763
      pz      :     5.216073  p :    16.925458
      px      :     5.888245
      py      :     5.821139
      dz2     :     2.019805  d :    10.050511
      dxz     :     2.009588
      dyz     :     2.015646
      dx2y2   :     2.002889
      dxy     :     2.002583
      f0      :     0.001560  f :     0.006173
      f+1     :     0.001198
      f-1     :     0.001986
      f+2     :     0.000560
      f-2     :     0.000707
      f+3     :     0.000048
      f-3     :     0.000114



                     *******************************
                     * LOEWDIN POPULATION ANALYSIS *
                     *******************************

----------------------
LOEWDIN ATOMIC CHARGES
----------------------
   0 C :   -0.106194
   1 C :    0.139851
   2 C :   -0.142262
   3 C :    0.066146
   4 C :    0.033417
   5 H :    0.170414
   6 H :    0.189938
   7 H :    0.187754
   8 H :    0.175149
   9 N :    0.086812
  10 O :   -0.050731
  11 O :   -0.053507
  12 C :   -0.302151
  13 H :    0.186340
  14 Br:    0.419022

-------------------------------
LOEWDIN REDUCED ORBITAL CHARGES
-------------------------------
  0 C s       :     2.757611  s :     2.757611
      pz      :     0.922789  p :     2.962084
      px      :     1.016859
      py      :     1.022436
      dz2     :     0.026673  d :     0.346844
      dxz     :     0.021448
      dyz     :     0.017478
      dx2y2   :     0.135629
      dxy     :     0.145616
      f0      :     0.002863  f :     0.039655
      f+1     :     0.004351
      f-1     :     0.003521
      f+2     :     0.001719
      f-2     :     0.001898
      f+3     :     0.009034
      f-3     :     0.016270

  1 C s       :     2.780607  s :     2.780607
      pz      :     0.543691  p :     2.644001
      px      :     1.068334
      py      :     1.031977
      dz2     :     0.026488  d :     0.393688
      dxz     :     0.071490
      dyz     :     0.042770
      dx2y2   :     0.104137
      dxy     :     0.148803
      f0      :     0.003723  f :     0.041853
      f+1     :     0.003402
      f-1     :     0.002933
      f+2     :     0.007035
      f-2     :     0.003249
      f+3     :     0.007935
      f-3     :     0.013576

  2 C s       :     2.709038  s :     2.709038
      pz      :     0.965281  p :     2.868235
      px      :     0.838531
      py      :     1.064423
      dz2     :     0.043920  d :     0.502037
      dxz     :     0.051642
      dyz     :     0.033440
      dx2y2   :     0.217934
      dxy     :     0.155101
      f0      :     0.004264  f :     0.062952
      f+1     :     0.006812
      f-1     :     0.004875
      f+2     :     0.005049
      f-2     :     0.003134
      f+3     :     0.014670
      f-3     :     0.024148

  3 C s       :     2.786359  s :     2.786359
      pz      :     0.617947  p :     2.711516
      px      :     1.035099
      py      :     1.058470
      dz2     :     0.027467  d :     0.393984
      dxz     :     0.066742
      dyz     :     0.047540
      dx2y2   :     0.119193
      dxy     :     0.133042
      f0      :     0.003826  f :     0.041995
      f+1     :     0.003702
      f-1     :     0.003154
      f+2     :     0.006147
      f-2     :     0.003627
      f+3     :     0.008251
      f-3     :     0.013288

  4 C s       :     2.793243  s :     2.793243
      pz      :     0.635278  p :     2.733084
      px      :     1.025737
      py      :     1.072069
      dz2     :     0.027816  d :     0.399733
      dxz     :     0.017722
      dyz     :     0.088692
      dx2y2   :     0.163285
      dxy     :     0.102219
      f0      :     0.003401  f :     0.040523
      f+1     :     0.002685
      f-1     :     0.004183
      f+2     :     0.001910
      f-2     :     0.006501
      f+3     :     0.007812
      f-3     :     0.014031

  5 H s       :     0.766557  s :     0.766557
      pz      :     0.012797  p :     0.063028
      px      :     0.015849
      py      :     0.034382

  6 H s       :     0.745639  s :     0.745639
      pz      :     0.005578  p :     0.064423
      px      :     0.022923
      py      :     0.035922

  7 H s       :     0.746645  s :     0.746645
      pz      :     0.007167  p :     0.065601
      px      :     0.021558
      py      :     0.036877

  8 H s       :     0.762465  s :     0.762465
      pz      :     0.007692  p :     0.062386
      px      :     0.045052
      py      :     0.009642

  9 N s       :     2.937103  s :     2.937103
      pz      :     0.932087  p :     3.173807
      px      :     1.127057
      py      :     1.114662
      dz2     :     0.041093  d :     0.735033
      dxz     :     0.045983
      dyz     :     0.173770
      dx2y2   :     0.271819
      dxy     :     0.202369
      f0      :     0.003051  f :     0.067245
      f+1     :     0.002642
      f-1     :     0.006038
      f+2     :     0.004427
      f-2     :     0.011154
      f+3     :     0.010185
      f-3     :     0.029749

 10 O s       :     3.520824  s :     3.520824
      pz      :     1.401130  p :     4.421315
      px      :     1.668471
      py      :     1.351714
      dz2     :     0.013642  d :     0.098425
      dxz     :     0.004768
      dyz     :     0.015881
      dx2y2   :     0.026965
      dxy     :     0.037168
      f0      :     0.000735  f :     0.010167
      f+1     :     0.000517
      f-1     :     0.001598
      f+2     :     0.000481
      f-2     :     0.000843
      f+3     :     0.003710
      f-3     :     0.002283

 11 O s       :     3.521742  s :     3.521742
      pz      :     1.400551  p :     4.423401
      px      :     1.671987
      py      :     1.350863
      dz2     :     0.013616  d :     0.098237
      dxz     :     0.004752
      dyz     :     0.015837
      dx2y2   :     0.027000
      dxy     :     0.037032
      f0      :     0.000732  f :     0.010126
      f+1     :     0.000512
      f-1     :     0.001593
      f+2     :     0.000484
      f-2     :     0.000834
      f+3     :     0.003688
      f-3     :     0.002283

 12 C s       :     2.776993  s :     2.776993
      pz      :     0.949425  p :     2.989516
      px      :     1.022728
      py      :     1.017364
      dz2     :     0.088748  d :     0.490798
      dxz     :     0.079571
      dyz     :     0.085983
      dx2y2   :     0.115059
      dxy     :     0.121438
      f0      :     0.004236  f :     0.044843
      f+1     :     0.005685
      f-1     :     0.005045
      f+2     :     0.005698
      f-2     :     0.003901
      f+3     :     0.007665
      f-3     :     0.012612

 13 H s       :     0.750281  s :     0.750281
      pz      :     0.024209  p :     0.063379
      px      :     0.014465
      py      :     0.024705

 14 Brs       :     7.655024  s :     7.655024
      pz      :     5.217181  p :    16.810888
      px      :     5.824518
      py      :     5.769188
      dz2     :     2.040221  d :    10.104012
      dxz     :     2.021103
      dyz     :     2.030370
      dx2y2   :     2.007565
      dxy     :     2.004753
      f0      :     0.003033  f :     0.011054
      f+1     :     0.002143
      f-1     :     0.003353
      f+2     :     0.001047
      f-2     :     0.001189
      f+3     :     0.000080
      f-3     :     0.000209



                      *****************************
                      * MAYER POPULATION ANALYSIS *
                      *****************************

  NA   - Mulliken gross atomic population
  ZA   - Total nuclear charge
  QA   - Mulliken gross atomic charge
  VA   - Mayer's total valence
  BVA  - Mayer's bonded valence
  FA   - Mayer's free valence

  ATOM       NA         ZA         QA         VA         BVA        FA
  0 C      6.1021     6.0000    -0.1021     3.8285     3.8285    -0.0000
  1 C      5.9711     6.0000     0.0289     3.8620     3.8620    -0.0000
  2 C      6.0185     6.0000    -0.0185     3.9895     3.9895    -0.0000
  3 C      6.1106     6.0000    -0.1106     3.9401     3.9401    -0.0000
  4 C      6.0973     6.0000    -0.0973     3.9249     3.9249    -0.0000
  5 H      0.7920     1.0000     0.2080     0.9567     0.9567    -0.0000
  6 H      0.7457     1.0000     0.2543     0.9429     0.9429    -0.0000
  7 H      0.7475     1.0000     0.2525     0.9475     0.9475     0.0000
  8 H      0.7803     1.0000     0.2197     0.9531     0.9531    -0.0000
  9 N      6.3728     7.0000     0.6272     4.0440     4.0440    -0.0000
 10 O      8.3671     8.0000    -0.3671     1.8026     1.8026    -0.0000
 11 O      8.3707     8.0000    -0.3707     1.7964     1.7964    -0.0000
 12 C      5.7908     6.0000     0.2092     3.7787     3.7787    -0.0000
 13 H      0.7757     1.0000     0.2243     0.9247     0.9247    -0.0000
 14 Br    34.9579    35.0000     0.0421     1.1307     1.1307    -0.0000

  Mayer bond orders larger than 0.100000
B(  0-C ,  1-C ) :   1.3023 B(  0-C ,  4-C ) :   1.5634 B(  0-C ,  5-H ) :   0.9467 
B(  1-C ,  2-C ) :   1.3190 B(  1-C ,  4-C ) :   0.1451 B(  1-C ,  6-H ) :   0.9131 
B(  2-C ,  3-C ) :   1.6007 B(  2-C ,  9-N ) :   0.9776 B(  3-C ,  4-C ) :   0.1264 
B(  3-C ,  7-H ) :   0.9108 B(  3-C , 12-C ) :   1.0044 B(  3-C , 14-Br) :   0.1339 
B(  4-C ,  8-H ) :   0.9446 B(  4-C , 12-C ) :   1.0213 B(  4-C , 14-Br) :   0.1132 
B(  9-N , 10-O ) :   1.5448 B(  9-N , 11-O ) :   1.5328 B( 10-O , 11-O ) :   0.1598 
B( 12-C , 13-H ) :   0.9293 B( 12-C , 14-Br) :   0.8396 

-------
TIMINGS
-------

Total SCF time: 0 days 0 hours 2 min 5 sec 

Total time                  ....     125.396 sec
Sum of individual times     ....     120.181 sec  ( 95.8%)

SCF preparation             ....       0.045 sec  (  0.0%)
Fock matrix formation       ....     119.884 sec  ( 95.6%)
  Startup                   ....       0.003 sec  (  0.0% of F)
  Split-RI-J                ....       6.519 sec  (  5.4% of F)
  Chain of spheres X        ....     118.540 sec  ( 98.9% of F)
Diagonalization             ....       0.000 sec  (  0.0%)
Density matrix formation    ....       0.022 sec  (  0.0%)
Total Energy calculation    ....       0.007 sec  (  0.0%)
Population analysis         ....       0.018 sec  (  0.0%)
Orbital Transformation      ....       0.022 sec  (  0.0%)
Orbital Orthonormalization  ....       0.000 sec  (  0.0%)
DIIS solution               ....       0.124 sec  (  0.1%)
SOSCF solution              ....       0.052 sec  (  0.0%)
Finished LeanSCF after 125.4 sec

Maximum memory used throughout the entire LEANSCF-calculation: 51.9 MB

------------------------------------------------------------------------------
                         ORCA PROPERTY INTEGRAL CALCULATIONS
------------------------------------------------------------------------------

GBWName                                   ... input.gbw
Number of atoms                           ...     15
Number of basis functions                 ...    357
Max core memory                           ...   8000 MB

Dipole integrals                          ... YES
Quadrupole integrals                      ...  NO
Linear momentum integrals                 ... YES
Angular momentum integrals                ... YES
Higher moments length integrals           ...  NO
Higher moments velocity integrals         ...  NO
Kinetic energy integrals                  ...  NO
GIAO right hand sides                     ...  NO
GIAO dipole derivative integrals          ...  NO
SOC integrals                             ...  NO
EPR diamagnetic integrals (GIAO)          ...  NO
EPR gauge integrals                       ...  NO
Field gradient integrals                  ...  NO (   0 nuclei)
Spin-dipole/Fermi contact integrals       ...  NO (   0 nuclei)
Contact density integrals                 ...  NO (   0 nuclei)
Nucleus-orbit integrals                   ...  NO (   0 nuclei)
Geometric perturbations                   ...  NO (  15 nuclei)

Choice of electric origin   ... Center of mass
Position of electric origin ... ( -0.0135, -0.0103, -0.0092) 
Choice of magnetic origin   ... GIAO
Position of magnetic origin ... (  0.0000,  0.0000,  0.0000) 

Calculating integrals                     ... Electric Dipole (Length)     done (  0.0 sec)
Calculating integrals                     ... Linear Momentum              done (  0.0 sec)
Calculating integrals                     ... Angular Momentum  (ElOri)    done (  0.0 sec)

Property integrals calculated in   0.0 sec

Maximum memory used throughout the entire PROPINT-calculation: 38.0 MB


--------------------------------------------------------------------------------
                             ORCA-MATRIX DRIVEN CI
--------------------------------------------------------------------------------


Wavefunction type
-----------------
Correlation treatment                      ...      CCSD     
Single excitations                         ... ON
Orbital optimization                       ... OFF
Calculation of Z vector                    ... OFF
Calculation of Brueckner orbitals          ... OFF
Perturbative triple excitations            ... ON
Calculation of F12 correction              ... OFF
Frozen core treatment                      ... chemical core (36 el)
Reference Wavefunction                     ... RHF
  Internal Orbitals:    18 ...   48 ( 31 MO's/ 62 electrons)
  Virtual  Orbitals:    49 ...  356 (308 MO's              )
Number of AO's                             ...    357
Number of electrons                        ...     98
Number of correlated electrons             ...     62

Algorithmic settings
--------------------
Integral transformation                    ... All integrals via the RI transformation
K(C) Formation                             ... RI-DLPNO
   PNO-Integral Storage                    ... ON DISK
   PNO occupation number cut-off           ... 1.000e-07
   Singles PNO occupation number cut-off   ... 3.000e-09
   PNO Mulliken prescreening cut-off       ... 1.000e-03
   Domain cut-off (Mulliken population)    ... 1.000e-03
   PNO Normalization                       ...    1
Maximum number of iterations               ...        50
Convergence tolerance (max. residuum)      ... 1.000e-05
Level shift for amplitude update           ... 2.000e-01
Maximum number of DIIS vectors             ...         7
DIIS turned on at iteration                ...         0
Damping before turning on DIIS             ...     0.500
Damping after turning on DIIS              ...     0.000
Pair specific amplitude update             ... OFF
Natural orbital iterations                 ... OFF
Perturbative natural orbital generation    ... OFF
Printlevel                                 ... 2

Singles Fock matrix elements calculated using PNOs.

Memory handling:
----------------
Maximum memory for working arrays          ...   8000 MB
Data storage in matrix containers          ... UNCOMPRESSED
Data type for integral storage             ... DOUBLE
In-Core Storage of quantities:
   Amplitudes+Sigma Vector      ... NO
   J+K operators                ... NO
   DIIS vectors                 ... NO
   3-external integrals         ... NO
   4-external integrals         ... NO

Localization treatment:
-----------------------
Localization option                        ...    6
Localization threshhold                    ... -1.0e+00
Using relative localization threshhold     ... 1.0e-08
Neglect threshold for strong pairs         ... 1.000e-05 Eh
Prescreening threshold for very weak pairs ... 1.000e-07 Eh

Initializing the integral package          ... done
Localizing the valence orbitals
Localizing the valence orbitals
------------------------------------------------------------------------------
                           ORCA ORBITAL LOCALIZATION
------------------------------------------------------------------------------

Input orbitals are from                  ... input.gbw
Output orbitals are to                   ... input.loc
Max. number of iterations                ... 128
Localizations seeded randomly            ... off
Convergence tolerance                    ... 1.000e-06
Using relative localization threshhold   ... 1.000e-08
Threshold for strong local MOs           ... 9.500e-01
Threshold for bond MOs                   ... 8.500e-01
Operator                                 ... 0
Orbital range for localization           ... 18 to 48
Localization criterion                   ... FOSTER-BOYS (AUGMENTED HESSIAN)
Doing the dipole integrals               ... o.k.
Initial value of the localization sum :   630.707870
ITERATION   0 : L=  673.5472814965 DL=  4.28e+01 (AVERGE_DL)=    0.3035255630 
ITERATION   1 : L=  678.3451557149 DL=  4.80e+00 (AVERGE_DL)=    0.1015776012 
ITERATION   2 : L=  678.8392078225 DL=  4.94e-01 (AVERGE_DL)=    0.0325956692 
ITERATION   3 : L=  678.8880032652 DL=  4.88e-02 (AVERGE_DL)=    0.0102438487 
ITERATION   4 : L=  678.8906027990 DL=  2.60e-03 (AVERGE_DL)=    0.0023644017 
ITERATION   5 : L=  678.8907601564 DL=  1.57e-04 (AVERGE_DL)=    0.0005817242 
ITERATION   6 : L=  678.8907830039 DL=  2.28e-05 (AVERGE_DL)=    0.0002216628 
ITERATION   7 : L=  678.8907896183 DL=  6.61e-06 (AVERGE_DL)=    0.0001192665 
ITERATION   8 : L=  678.8907929601 DL=  3.34e-06 (AVERGE_DL)=    0.0000847732 
ITERATION   9 : L=  678.8907949943 DL=  2.03e-06 (AVERGE_DL)=    0.0000661414 
ITERATION  10 : L=  678.8907962788 DL=  1.28e-06 (AVERGE_DL)=    0.0000525593 
ITERATION  11 : L=  678.8907971299 DL=  8.51e-07 (AVERGE_DL)=    0.0000427825 
LOCALIZATION SUM CONVERGED

------------------------------------------------------
AUGMENTED HESSIAN OPTIMIZATION OF FOSTER-BOYS ORBITALS
------------------------------------------------------

Spin operator:           0
Orbital window:          18 to 48
Number of iterations:    128
Gradient tolerance:      1.000e-06
Number of pairs:         465
Davidson threshold:      2000
Diagonalization method:  LAPACK
Iter:    0   L: 678.8907971299   Grad. norm: 3.540879e-03
Iter:    1   L: 678.8910023813   Grad. norm: 2.423663e-02
   *** Detected a saddle point. ***
       Augmented Hessian eigenvalues:  4.38e-03  2.93e-05 -4.12e-04 -5.78e-04 ... 
Iter:    2   L: 678.8938651011   Grad. norm: 1.363642e-01
Iter:    3   L: 678.8953129067   Grad. norm: 3.754324e-02
Iter:    4   L: 678.8957126419   Grad. norm: 2.885514e-02
Iter:    5   L: 678.8958411338   Grad. norm: 1.330903e-02
Iter:    6   L: 678.8958882884   Grad. norm: 2.885017e-03
Iter:    7   L: 678.8958929085   Grad. norm: 2.773227e-04
   *** Likely close to a maximum now. ***
       Augmented Hessian eigenvalues:  6.17e-08 -4.91e-04 -5.81e-04 -7.59e-04 ... 
Iter:    8   L: 678.8958929394   Grad. norm: 3.679053e-06
Iter:    9   L: 678.8958929395   Grad. norm: 4.028904e-10
LOCALIZATION HAS CONVERGED.

Eigenvalues of the Hessian:
  0 -4.920e-04
  1 -5.804e-04
  2 -7.545e-04
  3 -1.051e-03
  4 -1.976e-03
  5 -2.304e-03
  6 -2.645e-03
  7 -4.389e-03
  8 -5.505e-03
  9 -6.562e-03
    ...


--------------------------------------------------------------------------------
                    LOCALIZED MOLECULAR ORBITAL COMPOSITIONS
--------------------------------------------------------------------------------

The Mulliken populations for each LMO on each atom are computed
The LMO`s will be ordered according to atom index and type
  (A) Strongly localized MO`s have populations of >=0.950 on one atom
  (B) Two center bond orbitals have populations of >=0.850 on two atoms
  (C) Other MO`s are considered to be `delocalized`

FOUND  -  12 strongly local MO`s
       -  19 two center bond MO`s
       -   0 significantly delocalized MO`s

Rather strongly localized orbitals:
MO  29:  14Br -   0.992406
MO  28:  14Br -   0.991516
MO  27:  14Br -   0.999592
MO  26:  14Br -   0.999775
MO  25:  14Br -   0.999589
MO  24:  14Br -   0.992889
MO  23:  14Br -   0.999672
MO  22:  14Br -   0.999760
MO  21:  11O  -   0.987930
MO  20:  11O  -   0.985975
MO  19:  10O  -   0.986453
MO  18:  10O  -   0.985640
Bond-like localized orbitals:
MO  48:  14Br -   0.519388  and  12C  -   0.408227
MO  47:  13H  -   0.401013  and  12C  -   0.619549
MO  46:  12C  -   0.450392  and   4C  -   0.552133
MO  45:  12C  -   0.439221  and   3C  -   0.570722
MO  44:  11O  -   0.613151  and   9N  -   0.387832
MO  43:  11O  -   0.616935  and   9N  -   0.379623
MO  42:  10O  -   0.613783  and   9N  -   0.384032
MO  41:  10O  -   0.615515  and   9N  -   0.385029
MO  40:   9N  -   0.612845  and   2C  -   0.427428
MO  39:   8H  -   0.393487  and   4C  -   0.622638
MO  38:   7H  -   0.372288  and   3C  -   0.630730
MO  37:   6H  -   0.372480  and   1C  -   0.636429
MO  36:   5H  -   0.399938  and   0C  -   0.615577
MO  35:   4C  -   0.425471  and   0C  -   0.494382
MO  34:   4C  -   0.401672  and   0C  -   0.511665
MO  33:   3C  -   0.404624  and   2C  -   0.534969
MO  32:   3C  -   0.378935  and   2C  -   0.556058
MO  31:   2C  -   0.495589  and   1C  -   0.526719
MO  30:   1C  -   0.529671  and   0C  -   0.480801
Localized MO's were stored in: input.loc

Localizing the core orbitals
------------------------------------------------------------------------------
                           ORCA ORBITAL LOCALIZATION
------------------------------------------------------------------------------

Input orbitals are from                  ... input.loc
Output orbitals are to                   ... input.loc
Max. number of iterations                ... 128
Localizations seeded randomly            ... off
Convergence tolerance                    ... 1.000e-06
Using relative localization threshhold   ... 1.000e-08
Threshold for strong local MOs           ... 9.500e-01
Threshold for bond MOs                   ... 8.500e-01
Operator                                 ... 0
Orbital range for localization           ... 0 to 17
Localization criterion                   ... FOSTER-BOYS (AUGMENTED HESSIAN)
Doing the dipole integrals               ... o.k.
Initial value of the localization sum :   336.919724
ITERATION   0 : L=  337.0740817794 DL=  1.54e-01 (AVERGE_DL)=    0.0317627856 
ITERATION   1 : L=  337.2115724516 DL=  1.37e-01 (AVERGE_DL)=    0.0299771887 
ITERATION   2 : L=  337.2336908674 DL=  2.21e-02 (AVERGE_DL)=    0.0120235107 
ITERATION   3 : L=  337.2398891026 DL=  6.20e-03 (AVERGE_DL)=    0.0063648520 
ITERATION   4 : L=  337.2627420793 DL=  2.29e-02 (AVERGE_DL)=    0.0122215327 
ITERATION   5 : L=  337.2704571524 DL=  7.72e-03 (AVERGE_DL)=    0.0071010784 
ITERATION   6 : L=  337.2711256203 DL=  6.68e-04 (AVERGE_DL)=    0.0020902322 
ITERATION   7 : L=  337.2711663153 DL=  4.07e-05 (AVERGE_DL)=    0.0005157333 
ITERATION   8 : L=  337.2711686826 DL=  2.37e-06 (AVERGE_DL)=    0.0001243893 
ITERATION   9 : L=  337.2711690884 DL=  4.06e-07 (AVERGE_DL)=    0.0000514966 
LOCALIZATION SUM CONVERGED

------------------------------------------------------
AUGMENTED HESSIAN OPTIMIZATION OF FOSTER-BOYS ORBITALS
------------------------------------------------------

Spin operator:           0
Orbital window:          0 to 17
Number of iterations:    128
Gradient tolerance:      1.000e-06
Number of pairs:         153
Davidson threshold:      2000
Diagonalization method:  LAPACK
Iter:    0   L: 337.2711690884   Grad. norm: 1.441738e-03
   *** Detected a saddle point. ***
       Augmented Hessian eigenvalues:  2.80e-04  1.65e-04  1.37e-07 -3.56e-07 ... 
Iter:    1   L: 337.2712755033   Grad. norm: 9.537260e-04
Iter:    2   L: 337.2712784831   Grad. norm: 2.820432e-04
Iter:    3   L: 337.2712787459   Grad. norm: 6.210535e-05
Iter:    4   L: 337.2712787614   Grad. norm: 8.402077e-06
Iter:    5   L: 337.2712787626   Grad. norm: 8.098727e-08
   *** Likely close to a maximum now. ***
       Augmented Hessian eigenvalues:  5.36e-13 -2.54e-07 -2.74e-06 -3.18e-06 ... 
Iter:    6   L: 337.2712787626   Grad. norm: 2.078279e-11
LOCALIZATION HAS CONVERGED.

Eigenvalues of the Hessian:
  0 -2.534e-07
  1 -2.742e-06
  2 -3.180e-06
  3 -2.198e-05
  4 -6.047e-04
  5 -6.764e-04
  6 -1.930e-02
  7 -1.930e-02
  8 -1.931e-02
  9 -5.792e-02
    ...


--------------------------------------------------------------------------------
                    LOCALIZED MOLECULAR ORBITAL COMPOSITIONS
--------------------------------------------------------------------------------

The Mulliken populations for each LMO on each atom are computed
The LMO`s will be ordered according to atom index and type
  (A) Strongly localized MO`s have populations of >=0.950 on one atom
  (B) Two center bond orbitals have populations of >=0.850 on two atoms
  (C) Other MO`s are considered to be `delocalized`

FOUND  -  18 strongly local MO`s
       -   0 two center bond MO`s
       -   0 significantly delocalized MO`s

Rather strongly localized orbitals:
MO  17:  14Br -   1.000010
MO  16:  14Br -   1.000003
MO  15:  14Br -   1.000007
MO  14:  14Br -   0.999750
MO  13:  14Br -   0.999999
MO  12:  14Br -   0.999760
MO  11:  14Br -   0.999137
MO  10:  14Br -   0.999714
MO   9:  14Br -   0.999961
MO   8:  12C  -   1.002273
MO   7:  11O  -   0.999545
MO   6:  10O  -   0.999538
MO   5:   9N  -   1.001059
MO   4:   4C  -   1.001368
MO   3:   3C  -   1.001350
MO   2:   2C  -   1.000872
MO   1:   1C  -   1.000842
MO   0:   0C  -   1.001922
Localized MO's were stored in: input.loc

Warning: reference  - re-canonicalizations have been set to INT 1 VIRT 1
Warning: internal orbitals are localized - no re-canonicalization of internal orbitals
Warning: UsePNO is turned on - no re-canonicalization of internal and virtual orbitals
Fock densities were made 
Making Fock matrix and reference energy:

--------------------------
CLOSED-SHELL FOCK OPERATOR
--------------------------

Time needed for Fock operator              ...           19.589 sec
Reference energy                           ...  -3006.424944711

--------------
DLPNO SETTINGS (2015 fully linear scaling implementation)
--------------

TCutMKN:           1.000e-03
TCutPAO:           1.000e-03
TCutPNO:           1.000e-07
TCutPNOSingles:    3.000e-09
TCutEN:            9.700e-01
TCutPAOExt:        1.000e-01
TCutPairs:         1.000e-05
TCutPre:           1.000e-07
TCutOSV:           1.000e-06
TCutDOij:          1.000e-05
TCutDO:            5.000e-03
TCutC:             1.000e-04
TCutCPAO:          1.000e-03
TCutCMO:           1.000e-03
TScaleDOMP2PreScr: 2.000e+00
TScaleMKNMP2PreScr:1.000e+01
TScalePNOMP2PreScr:1.000e+00
PAO overlap thresh 1.000e-08
Using PNOs for Singles Fock computation
Use new domains
Use fully linear algorithm
TCutTNO:           1.000e-09
TCutMP2Pairs:      1.000e-06
TCutDOStrong:      1.000e-02
TCutDOWeak:        2.000e-02
TCutMKNStrong:     1.000e-02
TCutMKNWeak:       1.000e-01
NTCutTNO:          1

--------------------------
Mulliken population of the LMOs            ... ok
Performing proximity check                 ... 
 found 2 problematic atoms
   => In all likelyhood your results will be entirely fine!
   => In case you don't want to trust it, decrease TCutMKN to below 0.00050122.
   => but note that this is probably not necessary but will increase execution time
Calculating differential overlap integrals ... ok

--------------------------
ELECTRON PAIR PRESCREENING
--------------------------

Dipole-based pair screening          .... used

   TCutDOij = 1.000000e-05
   TCutPre  = 1.000000e-07
   .... Finished loop over pairs
Total time spent in the prescreening                  ...     0.000 sec
sum of pair energies estimated for screened out pairs ...       0.000000000000 Eh
Thresholds for map construction and integral transformation for crude MP2:
   TCutMKN                    ...     1.0e-02
   TCutDO                     ...     1.0e-02
   TCutPairs                  ...     1.0e-05
   TCutPNO_CrudeMP2           ...     1.0e-07
   TCutPNOSingles_CrudeMP2    ...     3.0e-09
--------------------------------
LOCAL RI TRANSFORMATION (IAVPAO)
--------------------------------

Orbital window:      18 to 48
Number of PAOs:     357
Basis functions:    357 (135 shells)
Aux. functions:     918 (270 shells)
Use SHARK:           on
Have SHARK:         yes

Processing maps (0.0 sec)
Average map sizes:
   Aux shells -> MOs              31.0
   Aux shells -> PAOs            357.0
   MOs        -> AO shells       131.5
   PAOs       -> AO shells       135.0

Calculating integrals (1.0 sec, 77.521 MB)
Sorting integrals (0.1 sec, 77.511 MB)
Total time for the integral transformation: 1.1 sec
--------------------------------
INITIAL GUESS AND PNO GENERATION
--------------------------------

[...]
Number of non-PNO amplitudes               ...     37471280
Untruncated number of regular amplitudes   ...     47052544

Iter       E(tot)           E(Corr)          Delta-E          Residual     Time
  0  -3008.193954356     -1.766610309      0.097088064      0.017704534   65.05
                           *** Turning on DIIS ***
  1  -3008.229047914     -1.801703868     -0.035093558      0.011593783   62.76
  2  -3008.279791282     -1.852447235     -0.050743368      0.005581978   63.86
  3  -3008.293183024     -1.865838977     -0.013391742      0.003848019   66.63
  4  -3008.297625799     -1.870281753     -0.004442776      0.002244949   65.25
  5  -3008.299474876     -1.872130829     -0.001849076      0.001265508   65.64
  6  -3008.300092871     -1.872748824     -0.000617995      0.000591194   65.61
  7  -3008.300219768     -1.872875721     -0.000126897      0.000269073   67.56
  8  -3008.300278105     -1.872934058     -0.000058337      0.000118458   68.00
  9  -3008.300265099     -1.872921052      0.000013006      0.000065293   66.92
 10  -3008.300272835     -1.872928788     -0.000007736      0.000044428   66.01
 11  -3008.300269813     -1.872925767      0.000003021      0.000030000   66.21
 12  -3008.300269166     -1.872925119      0.000000648      0.000019116   66.63
 13  -3008.300267772     -1.872923725      0.000001394      0.000011377   64.62
 14  -3008.300266735     -1.872922688      0.000001037      0.000005867   64.65
               --- The Coupled-Cluster iterations have converged ---

----------------------
COUPLED CLUSTER ENERGY
----------------------

E(0)                                       ...  -3006.424944711
E(CORR)(strong-pairs)                      ...     -1.872922688
E(CORR)(weak-pairs)                        ...     -0.002399336
E(CORR)(corrected)                         ...     -1.875322024
E(TOT)                                     ...  -3008.300266735
Singles Norm <S|S>**1/2                    ...      0.136371129  
T1 diagnostic                              ...      0.017319151  

------------------
LARGEST AMPLITUDES
------------------
  40-> 50  40-> 50       0.049222
  48-> 51  48-> 51       0.049132
  42-> 49  42-> 49       0.048975
  41-> 49  41-> 49       0.048509
  44-> 49  44-> 49       0.044131
  43-> 49  43-> 49       0.043145
  35-> 49  35-> 49       0.039312
  34-> 49  34-> 49       0.037107
  42-> 49  -1-> -1       0.036222
  41-> 49  -1-> -1       0.035980
  48-> 49  48-> 49       0.034866
  43-> 49  -1-> -1       0.034689
  44-> 49  -1-> -1       0.034419
  33-> 50  -1-> -1       0.033564
  32-> 50  -1-> -1       0.032409
  33-> 49  33-> 49       0.031361


-------------------------------------------
DLPNO BASED TRIPLES CORRECTION
-------------------------------------------

Singles multiplier          ...  1.000000
TCutTNO                     ... 1.000e-09
TCutMP2Pairs                ... 1.000e-06
TCutDOStrong                ... 1.000e-02
TCutMKNStrong               ... 1.000e-02
TCutDOWeak                  ... 2.000e-02
TCutMKNWeak                 ... 1.000e-01

Fragment selection                          .... not used
Number of Triples that are to be computed   ...      3853

 . . . . . . . . .             (     65.156 sec)
 . . . . . . . . .
10% done               (     52.489 sec)
 . . . . . . . . .
20% done               (     58.989 sec)
 . . . . . . . . .             (     58.376 sec)
 . . . . . . . . .
30% done               (     61.008 sec)
 . . . . . . . . .
40% done               (     65.700 sec)
 . . . . . . . . .
50% done               (     62.892 sec)
 . . . . . . . . .
60% done  
70% done               (     69.797 sec)
 . . . . . . . . .
80% done               (     70.099 sec)
 . . . . . . . . .
90% done               (     73.950 sec)
Triples timings:
Total time for T0               ...   717.932 sec
Total time for Iterative (T)    ...     0.000 sec
Total time of overall (T)       ...   717.932 sec

Triples List generation         ...     0.000 sec
TNO generation                  ...    79.465 sec
Pair density generation         ...     0.003 sec
Look up tables                  ...     0.000 sec
Generating 3-index integrals    ...   417.115 sec
  Make 4-ind.int. from 3-ind.int...    51.561 sec
  Projecting amplitudes (D + S) ...    65.923 sec
  Downprojecting integrals      ...     0.009 sec
  Energy contr. (sum over a,b,c)...    49.562 sec
Fitting ET(->0)                 ...     0.000 sec

Everything after 3-index        ...   221.341 sec

Timing details:
 TNO integrals                  ...   456.423 sec
   Reading 3-index integrals    ...     1.176 sec
   Sorting integrals            ...   118.505 sec
       Sorting integrals 1      ...     0.009 sec
       Sorting integrals 2      ...    84.910 sec
       Sorting integrals 3      ...     5.850 sec
       Sorting integrals 4      ...     0.189 sec
       Sorting integrals 5      ...     1.076 sec
       Sorting integrals 6      ...    26.472 sec
   Calculating local VM**-1/2   ...     2.805 sec
   Orthogonal. integrals        ...     5.960 sec
   Multipl. 3-index integrals   ...   327.977 sec
   All concerning IRIab (w/TNO) ...    10.681 sec

 Calculate W0/W1                ...    49.293 sec
 W 3-ext contribution           ...    11.469 sec
 W 3-int contribution           ...     8.392 sec
 Sorting W                      ...    26.081 sec

 V exchange contribution        ...    23.280 sec

 Timings for Triples without generation
     of 3-index integrals       ...   220.982 sec
       0 weak pairs             ...   203.660 sec
       1 weak pair              ...    17.322 sec
       2 weak pairs             ...     0.000 sec
       3 weak pairs             ...     0.000 sec
  Extra time for extrapolation  ...     0.000 sec

Number of Triples   (0, 1, 2, 3 weak pairs; overall):   3275     578       0       0  (  3853)
Number of Atoms     (0, 1, 2, 3 weak pairs; overall):   13.7    12.3     0.0     0.0  (    15)
Number of PAOs      (0, 1, 2, 3 weak pairs; overall):  336.2   318.6     0.0     0.0  (   357)
Number of AuxFcns   (0, 1, 2, 3 weak pairs; overall):  477.9   341.8     0.0     0.0  (   918)
Number of TNOs      (0, 1, 2, 3 weak pairs         ):   96.0    69.6     0.0     0.0
Aver. Number of NTNO, Atoms, PAOs, AuxFcns / Triples:   3853    92.0    13.5   333.6   457.5

Triples Correction (T)                     ...     -0.093337752
Final correlation energy                   ...     -1.968659777
E(CCSD)                                    ...  -3008.300266735
E(CCSD(T))                                 ...  -3008.393604487



--------------------------------------------------------------------------------
                                    TIMINGS
--------------------------------------------------------------------------------


Total execution time                   ...     2234.362 sec

Localization of occupied MO's          ...        0.232 sec (  0.0%)
Fock Matrix Formation                  ...       19.589 sec (  0.9%)
Global overlap, Fock, MKN matrices     ...        0.099 sec (  0.0%)
Differential overlap integrals         ...        0.754 sec (  0.0%)
Organizing maps                        ...        0.019 sec (  0.0%)
RI 3-index integral generations        ...        4.773 sec (  0.2%)
RI-PNO integral transformation         ...      428.830 sec ( 19.2%)
Initial Guess                          ...       76.389 sec (  3.4%)
DIIS Solver                            ...        2.633 sec (  0.1%)
State Vector Update                    ...        0.046 sec (  0.0%)
Sigma-vector construction              ...      984.620 sec ( 44.1%)
  <0|H|D>                              ...        0.005 sec (  0.0% of sigma)
  <D|H|D>(0-ext)                       ...       52.193 sec (  5.3% of sigma)
  <D|H|D>(2-ext Fock)                  ...        0.110 sec (  0.0% of sigma)
  <D|H|D>(2-ext)                       ...      103.914 sec ( 10.6% of sigma)
  <D|H|D>(4-ext)                       ...       99.798 sec ( 10.1% of sigma)
  <D|H|D>(4-ext-corr)                  ...      519.924 sec ( 52.8% of sigma)
  CCSD doubles correction              ...        3.449 sec (  0.4% of sigma)
  <S|H|S>                              ...       12.042 sec (  1.2% of sigma)
  <S|H|D>(1-ext)                       ...        5.953 sec (  0.6% of sigma)
  <D|H|S>(1-ext)                       ...        0.147 sec (  0.0% of sigma)
  <S|H|D>(3-ext)                       ...        3.541 sec (  0.4% of sigma)
  CCSD singles correction              ...        0.001 sec (  0.0% of sigma)
  Fock-dressing                        ...      123.194 sec ( 12.5% of sigma)
  Singles amplitudes                   ...        1.458 sec (  0.1% of sigma)
  (ik|jl)-dressing                     ...       39.452 sec (  4.0% of sigma)
  (ij|ab),(ia|jb)-dressing             ...       19.016 sec (  1.9% of sigma)
  Pair energies                        ...        0.040 sec (  0.0% of sigma)
Total Time for computing (T)           ...      717.952 sec ( 32.1% of ALL)


Maximum memory used throughout the entire MDCI-calculation: 8021.2 MB

-------------------------   --------------------
FINAL SINGLE POINT ENERGY     -3008.393604487392
-------------------------   --------------------


------------------------------------------------------------------------------
                              ORCA PROPERTY CALCULATIONS
------------------------------------------------------------------------------

GBWName                                 ... input.gbw
Number of atoms                         ...     15
Number of basis functions               ...    357
Max core memory                         ...   8000 MB

Electric properties:
Dipole moment                           ... YES
Quadrupole moment                       ...  NO
Static polarizability (Dipole/Dipole)   ...  NO
Static polarizability (Dipole/Quad.)    ...  NO
Static polarizability (Quad./Quad.)     ...  NO
Static polarizability (Velocity)        ...  NO
Static hyperpolarizability              ...  NO

Atomic electric properties:
Dipole moment                           ...  NO
Quadrupole moment                       ...  NO
Static polarizability                   ...  NO

Choice of electric origin               ... Center of mass
Position of electric origin             ...    -0.013473    -0.010289    -0.009205

General magnetic properties:
Magnetizability                         ...  NO

EPR properties:
g-Tensor (aka g-matrix)                 ...  NO
Zero-Field splitting spin-orbit         ...  NO
Zero-field splitting spin-spin          ...  NO
Hyperfine couplings                     ...  NO (   0 nuclei)
Quadrupole couplings                    ...  NO (   0 nuclei)
Contact density                         ...  NO (   0 nuclei)

NMR properties:
Chemical shifts                         ...  NO (   0 nuclei)
Spin-rotation constants                 ...  NO (   0 nuclei)
Spin-spin couplings                     ...  NO (   0 nuclei,    0 pairs)

Choice of magnetic origin               ... GIAO
Position of magnetic origin             ...     0.000000     0.000000     0.000000

Properties with geometric perturbations:
SCF Hessian                             ...  NO
IR spectrum                             ...  NO
VCD spectrum                            ...  NO
X-ray spectroscopy properties:
SCF XES/XAS/RIXS spectra                ...  NO

SCF SOC stabilization energy            ...  NO
Diagonal Born-Oppenheimer correction    ...  NO

-------------
DIPOLE MOMENT
-------------

Method             : SCF
Type of density    : Electron Density
Multiplicity       :   1
Irrep              :   0
Energy             : -3006.4249500025871384 Eh
Basis              : AO
                                X                 Y                 Z
Electronic contribution:    -12.973304467     -13.788012036     -12.618349495
Nuclear contribution   :     10.711533395      14.910520938      14.007030555
                        -----------------------------------------
Total Dipole Moment    :     -2.261771072       1.122508902       1.388681060
                        -----------------------------------------
Magnitude (a.u.)       :      2.881678279
Magnitude (Debye)      :      7.324644087



--------------------
Rotational spectrum 
--------------------
 
Rotational constants in cm-1:             0.060778             0.018316             0.015196 
Rotational constants in MHz :          1822.089674           549.085833           455.566045 

Dipole components along the rotational axes: 
x,y,z [a.u.] :     0.986707    -2.530061    -0.963986 
x,y,z [Debye]:     2.508009    -6.430905    -2.450258 

 

Dipole moment calculation done in   0.0 sec 

Maximum memory used throughout the entire PROP-calculation: 35.1 MB

--------------------------------
SUGGESTED CITATIONS FOR THIS RUN
--------------------------------

Below you find a list of papers that are relevant to this ORCA run
We neither can nor want to force you to cite these papers, but we appreciate if you do
You receive ORCA, which is the product of decades of hard work by many enthusiastic individuals, for free
The only thing we kindly ask in return is that you cite our papers,
We deeply appreciate it, if you show your appreciation for ORCA by not just citing the generic ORCA reference.

Please note that relegating all ORCA citations to the supporting information does *not* help us.
SI sections are not indexed - citations you put there will not count into any citation statistics
But we need these citations in order to attract the funding resources that allow us to do what we are doing

Therefore, if you are a happy ORCA user, please consider citing a few of the papers listed below in the main body of your paper

In addition to the list printed below, the program has created the file input.bibtex that contains the list in bibtex format
You can import this file easily into all common literature databanks and citation aid programs

It goes without saying that in many instances, there are alternative algorithms to achieve similar
results as the ones you have gotten from ORCA. It is, of course, also the case that in some instances
ORCA just re-implements algorithms worked out by others. We are fully aware of that and we are also
fully appreciative of our colleagues work. Hence this citation list should not be read as indicating
that the listed papers, which are focused on our own work, are the only ones worth citing. It simply
meant to make it easier for users to cite ORCA specific papers. It is not a substitute for doing your
own literature research and citing the relevant literature in a scientifically appropriate manner.

List of essential papers. We consider these as the minimum necessary citations

  1. Neese, F.
     Software update: the ORCA program system, version 6.0
     WIRES Comput. Molec. Sci. 2025 15(1), e70019
     doi.org/10.1002/wcms.70019

List of papers to cite with high priority. The work reported in these papers was absolutely
necessary for this run to complete.
Our perspective: the developers of density functionals and basis sets usually get cited in chemistry papers
Good! But without the algorithms to do something with them, the functionals or basis sets would not do anything.
Hence, in our opinion, the algorithm design and method developments papers are equally worthy of getting cited

  1. Neese, F.
     An improvement of the resolution of the identity approximation for the formation of the Coulomb matrix
     J. Comp. Chem. 2003 24(14), 1740-1747
     doi.org/10.1002/jcc.10318
  2. Neese, F.; Wennmohs, F.; Hansen, A.; Becker, U.
     Efficient, approximate and parallel Hartree-Fock and hybrid DFT calculations. A 'chain-of-spheres' algorithm for the Hartree-Fock exchange
     Chem. Phys. 2009 356(1-3), 98-109
     doi.org/10.1016/j.chemphys.2008.10.036
  3. Neese, F.; Hansen, A.; Liakos, D.G.
     Efficient and accurate approximations to the local coupled cluster singles doubles method using a truncated pair natural orbital basis
     J. Chem. Phys. 2009 131 , 064103
     doi.org/10.1063/1.3173827
  4. Neese, F.; Wennmohs, F.; Hansen, A.
     Efficient and accurate local approximations to coupled-electron pair approaches: An attempt to revive the pair natural orbital method
     J. Chem. Phys. 2009 130 , 114108
     doi.org/10.1063/1.3086717
  5. Riplinger, C.; Neese, F.
     An efficient and near linear scaling pair natural orbital based local coupled cluster method
     J. Chem. Phys. 2013 138(3), Art. No. 034106
     doi.org/10.1063/1.4773581
  6. Riplinger, C.; Sandhoefer, B.; Hansen, A.; Neese, F.
     Natural triple excitations in local coupled cluster calculations with pair natural orbitals
     J. Chem. Phys. 2013 139(13), Art. No. 134101
     doi.org/10.1063/1.4821834
  7. Riplinger, C.; Pinski, P.; Becker, U.; Valeev, E.F.; Neese, F.
     Sparse maps-A systematic infrastructure for reduced-scaling electronic structure methods. II. Linear scaling domain based pair natural orbital coupled cluster theory
     J. Chem. Phys. 2016 144 , 
     doi.org/10.1063/1.4939030
  8. Bistoni, G.; Riplinger, C.; Minenkov, Y.; Cavallo, L.; Auer, A.A.; Neese, F.
     Treating Subvalence Correlation Effects in Domain Based Pair Natural Orbital Coupled Cluster Calculations: An Out-of-the-Box Approach
     J. Theo. Comp. Chem. 2017 13 , 3220-3227
     doi.org/10.1021/acs.jctc.7b00352
  9. Helmich-Paris, B.; de Souza, B.; Neese, F.; Izsák, R.
     An improved chain of spheres for exchange algorithm
     J. Chem. Phys. 2021 155(10), 104109
     doi.org/10.1063/5.0058766
 10. Neese, F.
     The SHARK Integral Generation and Digestion System
     J. Comp. Chem. 2022 44(3), 381
     doi.org/10.1002/jcc.26942

List of suggested additional citations. These are papers that are important in the 'surrounding' of 
of this run, or papers that preceded the highly important papers. If you like your results we are grateful for a citation.

  1. Izsak, R.; Neese, F.
     An overlap fitted chain of spheres exchange method
     J. Chem. Phys. 2011 135 , 144105
     doi.org/10.1063/1.3646921
  2. Izsak, R.; Hansen, A.; Neese, F.
     The resolution of identity and chain of spheres approximations for the LPNO-CCSD singles Fock term
     Molec. Phys. 2012 110 , 2413-2417
     doi.org/10.1080/00268976.2012.687466
  3. Neese, F.
     The ORCA program system
     WIRES Comput. Molec. Sci. 2012 2(1), 73-78
     doi.org/10.1002/wcms.81
  4. Izsak, R.; Neese, F.; Klopper, W.
     Robust fitting techniques in the chain of spheres approximation to the Fock exchange: The role of the complementary space
     J. Chem. Phys. 2013 139 , 
     doi.org/10.1063/1.4819264
  5. Neese, F.
     Software update: the ORCA program system, version 4.0
     WIRES Comput. Molec. Sci. 2018 8(1), 1-6
     doi.org/10.1002/wcms.1327
  6. Neese, F.; Wennmohs, F.; Becker, U.; Riplinger, C.
     The ORCA quantum chemistry program package
     J. Chem. Phys. 2020 152(22), 224108
     doi.org/10.1063/5.0004608
  7. Neese, F.
     Software update: The ORCA program system—Version 5.0
     WIRES Comput. Molec. Sci. 2022 12(1), e1606
     doi.org/10.1002/wcms.1606

List of optional additional citations

  1. Neese, F.
     Approximate second-order SCF convergence for spin unrestricted wavefunctions
     Chem. Phys. Lett. 2000 325(1-3), 93-98
     doi.org/10.1016/s0009-2614(00)00662-x

Timings for individual modules:

Sum of individual times          ...     2364.614 sec (=  39.410 min)
Startup calculation              ...        1.444 sec (=   0.024 min)   0.1 %
SCF iterations                   ...      126.640 sec (=   2.111 min)   5.4 %
Property integrals               ...        0.358 sec (=   0.006 min)   0.0 %
Property calculations            ...        0.384 sec (=   0.006 min)   0.0 %
MDCI module                      ...     2235.789 sec (=  37.263 min)  94.6 %
                             ****ORCA TERMINATED NORMALLY****
TOTAL RUN TIME: 0 days 0 hours 39 minutes 24 seconds 929 msec
