&FCI NORB=8,NELEC=0,MS2=0
ORBSYM=1,1,1,1,
ISYM=1,
/
      5.47090219493196694422e-01 	 1 1 1 1
     -4.82177903611521532778e-02 	 1 1 2 1
      2.70565017871812807382e-01 	 1 1 2 2
     -2.34910534244069831022e-02 	 1 1 3 1
     -6.92944723396244233876e-03 	 1 1 3 2
      3.07295264103058241023e-01 	 1 1 3 3
     -5.28012671437497194127e-03 	 1 1 4 1
      5.06400099415876765773e-05 	 1 1 4 2
      5.59784265710669675514e-03 	 1 1 4 3
      1.88651272925133978164e-01 	 1 1 4 4
      5.44093055616332380020e-03 	 1 1 5 1
     -3.93557410630171206761e-03 	 1 1 5 2
      1.15372644612292893362e-02 	 1 1 5 3
      1.31532490146685525009e-03 	 1 1 5 4
      1.50899238563794918511e-01 	 1 1 5 5
      2.34907426181287896927e-02 	 1 1 6 1
      6.93221994553353242779e-03 	 1 1 6 2
      1.53117782025821921876e-02 	 1 1 6 3
     -1.22242180333901259703e-02 	 1 1 6 4
     -4.40687046551192524585e-03 	 1 1 6 5
      3.07292272161093726890e-01 	 1 1 6 6
      5.42747233882749906958e-03 	 1 1 7 1
     -3.92766453479275953753e-03 	 1 1 7 2
      4.39819092472031481639e-03 	 1 1 7 3
     -6.64998439728507664132e-03 	 1 1 7 4
     -9.72030385206583402973e-05 	 1 1 7 5
     -1.15304778091563815690e-02 	 1 1 7 6
      1.50907467315950977182e-01 	 1 1 7 7
      5.32054217486669332737e-03 	 1 1 8 1
     -3.02484055810493589016e-05 	 1 1 8 2
     -1.22229594438589116850e-02 	 1 1 8 3
      5.58755202717077514851e-03 	 1 1 8 4
      6.65618825113812023070e-03 	 1 1 8 5
      5.58933194442892081893e-03 	 1 1 8 6
     -1.33014836116964905652e-03 	 1 1 8 7
      1.88637226439108351972e-01 	 1 1 8 8
     -4.82177903611520700111e-02 	 2 1 1 1
      1.91961361196290071496e-02 	 2 1 2 1
     -2.47012731840197362343e-02 	 2 1 2 2
      5.01220829692331035915e-03 	 2 1 3 1
      3.39167067123289896549e-03 	 2 1 3 2
     -2.49968506847062510445e-02 	 2 1 3 3
      2.14367169089457526229e-03 	 2 1 4 1
      3.88389593818106327455e-03 	 2 1 4 2
     -1.14398918157176845804e-03 	 2 1 4 3
     -2.79332802323233129332e-03 	 2 1 4 4
     -4.68324410490882493512e-04 	 2 1 5 1
      3.08492033912673635151e-03 	 2 1 5 2
     -3.61233738929715849850e-03 	 2 1 5 3
      5.55788085315991669741e-04 	 2 1 5 4
      2.03556172176370536731e-02 	 2 1 5 5
     -5.01180304842887679867e-03 	 2 1 6 1
     -3.39178848107164927772e-03 	 2 1 6 2
     -3.78733123339436688476e-03 	 2 1 6 3
      3.46800499478458869665e-03 	 2 1 6 4
      1.46560225310375267724e-03 	 2 1 6 5
     -2.49964743322176607965e-02 	 2 1 6 6
     -4.61135523174612460204e-04 	 2 1 7 1
      3.08761729043004803236e-03 	 2 1 7 2
     -1.46183688224683721278e-03 	 2 1 7 3
      3.82502071019229228366e-03 	 2 1 7 4
      1.80387378788166951975e-03 	 2 1 7 5
      3.60950197860944411651e-03 	 2 1 7 6
      2.03551463091188877819e-02 	 2 1 7 7
     -2.15663781337990540649e-03 	 2 1 8 1
     -3.89829194893037906181e-03 	 2 1 8 2
      3.46646970714879158054e-03 	 2 1 8 3
     -2.37862751708830871475e-03 	 2 1 8 4
     -3.82588985323561179067e-03 	 2 1 8 5
     -1.14029191624906390753e-03 	 2 1 8 6
     -5.52874225225184604861e-04 	 2 1 8 7
     -2.78784224383700788771e-03 	 2 1 8 8
      2.70565017871812918404e-01 	 2 2 1 1
     -2.47012731840197292954e-02 	 2 2 2 1
      4.36948904340418831094e-01 	 2 2 2 2
     -2.02703715865821480074e-03 	 2 2 3 1
     -8.51880883542942626829e-03 	 2 2 3 2
      1.92331991240077382344e-01 	 2 2 3 3
      6.58250808044857221857e-03 	 2 2 4 1
      3.73365160097948204851e-03 	 2 2 4 2
      3.35471358270741926155e-03 	 2 2 4 3
      2.61638094334672000052e-01 	 2 2 4 4
      3.68251561070556806751e-03 	 2 2 5 1
     -7.08600475591173416257e-03 	 2 2 5 2
      5.94418178793793688941e-03 	 2 2 5 3
      1.09185439201622521213e-03 	 2 2 5 4
      1.98959077701951564388e-01 	 2 2 5 5
      2.02773990365308527661e-03 	 2 2 6 1
      8.51997595279869492091e-03 	 2 2 6 2
      3.35375597859251944888e-03 	 2 2 6 3
     -7.67400237076727893826e-03 	 2 2 6 4
     -1.82874356467682642677e-03 	 2 2 6 5
      1.92326361277122714899e-01 	 2 2 6 6
      3.68272498661616253315e-03 	 2 2 7 1
     -7.07600911525801956614e-03 	 2 2 7 2
      1.82150287599342473356e-03 	 2 2 7 3
     -1.00106237276527051949e-02 	 2 2 7 4
     -1.60906945777075150762e-03 	 2 2 7 5
     -5.93604488926528957304e-03 	 2 2 7 6
      1.98970012537748958126e-01 	 2 2 7 7
     -6.56817959734829273644e-03 	 2 2 8 1
     -3.67950360982965919351e-03 	 2 2 8 2
     -7.67420534585579443981e-03 	 2 2 8 3
      1.14034908908713771697e-02 	 2 2 8 4
      1.00203944219260081966e-02 	 2 2 8 5
      3.35035140622059980295e-03 	 2 2 8 6
     -1.11890972356737524937e-03 	 2 2 8 7
      2.61615469530138478049e-01 	 2 2 8 8
     -2.34910534244069831022e-02 	 3 1 1 1
      5.01220829692329301192e-03 	 3 1 2 1
     -2.02703715865822173964e-03 	 3 1 2 2
      7.72329862489807856402e-03 	 3 1 3 1
      9.87735674989262618997e-04 	 3 1 3 2
     -3.72799569292077623284e-02 	 3 1 3 3
      1.17355620378643919072e-03 	 3 1 4 1
      5.78844429954912184644e-04 	 3 1 4 2
     -1.20796963925899093761e-03 	 3 1 4 3
     -1.09567561554532039159e-03 	 3 1 4 4
     -2.78102949885421636515e-04 	 3 1 5 1
      4.87407826543890870460e-04 	 3 1 5 2
     -3.47065427385877907016e-03 	 3 1 5 3
      3.12159346924593549162e-04 	 3 1 5 4
      9.92360891487759945451e-03 	 3 1 5 5
     -1.08638292459220411716e-03 	 3 1 6 1
     -1.09698052326230089705e-03 	 3 1 6 2
     -2.76537932367049675564e-03 	 3 1 6 3
      1.74985199293595542966e-03 	 3 1 6 4
      7.91273105786263102404e-04 	 3 1 6 5
     -7.56009245831645079056e-03 	 3 1 6 6
     -5.84696115676243215707e-04 	 3 1 7 1
      9.62697911842059095983e-04 	 3 1 7 2
     -1.66376706115661473530e-03 	 3 1 7 3
      2.50628163824749474603e-03 	 3 1 7 4
      7.42368759281083513690e-04 	 3 1 7 5
      1.99759250536855545444e-03 	 3 1 7 6
      8.13701406056949010093e-03 	 3 1 7 7
     -7.64315848178620765689e-04 	 3 1 8 1
     -1.12458632495440464909e-03 	 3 1 8 2
      3.30285689207174661466e-03 	 3 1 8 3
     -7.14290015633649343421e-04 	 3 1 8 4
     -1.76833276545384837294e-03 	 3 1 8 5
     -6.22743946444794861141e-04 	 3 1 8 6
     -2.62707430181773277447e-04 	 3 1 8 7
      3.43480225263440063291e-03 	 3 1 8 8
     -6.92944723396244494085e-03 	 3 2 1 1
      3.39167067123288682243e-03 	 3 2 2 1
     -8.51880883542942453357e-03 	 3 2 2 2
      9.87735674989265221083e-04 	 3 2 3 1
      9.91567567984240425677e-04 	 3 2 3 2
     -8.18333786843329635818e-03 	 3 2 3 3
      3.05915393965438750512e-04 	 3 2 4 1
      8.04000092819440637278e-04 	 3 2 4 2
     -2.22906287610531104451e-04 	 3 2 4 3
     -1.52856179703881765383e-03 	 3 2 4 4
     -2.18191977740856714579e-04 	 3 2 5 1
      5.74048719512059921199e-04 	 3 2 5 2
     -9.41157609775016045298e-04 	 3 2 5 3
      6.04515018354986809700e-05 	 3 2 5 4
      2.50460829811345684487e-03 	 3 2 5 5
     -1.09676650532446835415e-03 	 3 2 6 1
     -7.64391365841015474857e-04 	 3 2 6 2
     -7.98607690055747141550e-04 	 3 2 6 3
      7.35227842997667195742e-04 	 3 2 6 4
      3.22447511375645941463e-04 	 3 2 6 5
     -5.15156184238281696086e-03 	 3 2 6 6
     -5.25852182126550432920e-05 	 3 2 7 1
      6.25280397780542530721e-04 	 3 2 7 2
     -4.25908527435327362558e-04 	 3 2 7 3
      7.54293245227160365392e-04 	 3 2 7 4
      3.11740057434487741889e-04 	 3 2 7 5
      7.46503112594226075384e-04 	 3 2 7 6
      3.16091677005097106481e-03 	 3 2 7 7
     -2.27180335894602988215e-04 	 3 2 8 1
     -5.18140368982507142082e-04 	 3 2 8 2
      9.90396034234317145309e-04 	 3 2 8 3
     -5.82549556767858727618e-04 	 3 2 8 4
     -7.96021941207688556695e-04 	 3 2 8 5
     -2.79232251532273768359e-04 	 3 2 8 6
     -1.40798520102468989381e-04 	 3 2 8 7
     -2.74249101539314086781e-03 	 3 2 8 8
      3.07295264103058685112e-01 	 3 3 1 1
     -2.49968506847063030862e-02 	 3 3 2 1
      1.92331991240076993765e-01 	 3 3 2 2
     -3.72799569292077345728e-02 	 3 3 3 1
     -8.18333786843332064431e-03 	 3 3 3 2
      6.55669907705973442624e-01 	 3 3 3 3
     -4.55405324229702854200e-03 	 3 3 4 1
      6.63481835808015407881e-04 	 3 3 4 2
      8.04053600297873448388e-03 	 3 3 4 3
      1.73245743658481082816e-01 	 3 3 4 4
      5.91634012500725017802e-04 	 3 3 5 1
     -2.37423918329862692136e-03 	 3 3 5 2
      2.95615168158604481319e-02 	 3 3 5 3
      3.88926315799967660999e-04 	 3 3 5 4
      1.19238191714537117294e-01 	 3 3 5 5
      7.56189551909170701999e-03 	 3 3 6 1
      5.15205656466053135006e-03 	 3 3 6 2
      2.04625341756494508183e-02 	 3 3 6 3
     -7.26714461738239315969e-03 	 3 3 6 4
     -1.34758555174085059222e-03 	 3 3 6 5
      2.04507809141728613689e-01 	 3 3 6 6
      2.80883691807937846407e-03 	 3 3 7 1
     -3.94326450732067606414e-03 	 3 3 7 2
      1.65072620950922135941e-02 	 3 3 7 3
     -7.66374654893871559008e-03 	 3 3 7 4
      2.17545070706831155782e-04 	 3 3 7 5
     -6.20903532678856225763e-03 	 3 3 7 6
      1.27535484096851364777e-01 	 3 3 7 7
      3.50964145904426568293e-03 	 3 3 8 1
      2.59096413381383660138e-03 	 3 3 8 2
     -2.90853381113971229399e-02 	 3 3 8 3
      4.13037850299520503672e-03 	 3 3 8 4
      8.48991472865343673078e-04 	 3 3 8 5
      2.02371470343680557452e-03 	 3 3 8 6
     -1.65750367473932545131e-03 	 3 3 8 7
      1.41212170283319893294e-01 	 3 3 8 8
     -5.28012671437502658506e-03 	 4 1 1 1
      2.14367169089458740536e-03 	 4 1 2 1
      6.58250808044863553598e-03 	 4 1 2 2
      1.17355620378645111694e-03 	 4 1 3 1
      3.05915393965443412581e-04 	 4 1 3 2
     -4.55405324229701206212e-03 	 4 1 3 3
      1.72001739935664292418e-03 	 4 1 4 1
      1.06327061721425870922e-03 	 4 1 4 2
      3.37462958578515137206e-04 	 4 1 4 3
      5.70331766171886748312e-03 	 4 1 4 4
      3.54858462733351361345e-04 	 4 1 5 1
      2.41006394152935729492e-04 	 4 1 5 2
      4.47529383158670594246e-04 	 4 1 5 3
     -1.30235935600329417626e-04 	 4 1 5 4
      5.58666443248733313870e-03 	 4 1 5 5
     -7.58815179296232840585e-04 	 4 1 6 1
     -2.24563602835649777853e-04 	 4 1 6 2
     -2.48613056749323461155e-04 	 4 1 6 3
     -5.76098103970324685458e-04 	 4 1 6 4
     -1.86395207820551518912e-04 	 4 1 6 5
     -3.48861733928204544725e-03 	 4 1 6 6
      5.30676506425080689484e-04 	 4 1 7 1
      4.83723562609272297267e-04 	 4 1 7 2
      2.46429652059288774313e-04 	 4 1 7 3
     -9.19360882380808428112e-04 	 4 1 7 4
     -1.06032010731663432421e-04 	 4 1 7 5
     -6.88634679380681520577e-04 	 4 1 7 6
      6.18673917327621555179e-03 	 4 1 7 7
     -1.11209959913840627892e-03 	 4 1 8 1
     -8.51897675086693692212e-04 	 4 1 8 2
     -2.00300349532375932980e-04 	 4 1 8 3
      4.65197028317977518395e-05 	 4 1 8 4
      1.05273197517042130245e-03 	 4 1 8 5
      2.43826688459227933214e-04 	 4 1 8 6
     -1.73222240319071794522e-05 	 4 1 8 7
      4.24837936825275559044e-03 	 4 1 8 8
      5.06400099416103973891e-05 	 4 2 1 1
      3.88389593818108539228e-03 	 4 2 2 1
      3.73365160097980991125e-03 	 4 2 2 2
      5.78844429954943734927e-04 	 4 2 3 1
      8.04000092819440095177e-04 	 4 2 3 2
      6.63481835808099108288e-04 	 4 2 3 3
      1.06327061721425979342e-03 	 4 2 4 1
      5.50010715557853677171e-03 	 4 2 4 2
      3.47733157454243366785e-06 	 4 2 4 3
      4.96066393362325133015e-03 	 4 2 4 4
     -6.00054289312292908008e-06 	 4 2 5 1
      1.06462154302432057511e-03 	 4 2 5 2
     -4.29456717288145372984e-04 	 4 2 5 3
      3.06555776323317501555e-04 	 4 2 5 4
      8.32312093206374371823e-03 	 4 2 5 5
     -1.12053011780304944030e-03 	 4 2 6 1
     -5.14522396558385959782e-04 	 4 2 6 2
     -5.41406577528367929236e-04 	 4 2 6 3
      5.33781752458598675488e-04 	 4 2 6 4
      3.04605136879201334431e-04 	 4 2 6 5
     -2.57893075808588150694e-03 	 4 2 6 6
      2.10907519698221284504e-04 	 4 2 7 1
      2.96989263984527758228e-04 	 4 2 7 2
     -3.42635821437029712902e-04 	 4 2 7 3
      1.33781348048681210123e-04 	 4 2 7 4
      7.38957757582898696128e-04 	 4 2 7 5
      8.39982540740440240118e-04 	 4 2 7 6
      7.34589718465497414079e-03 	 4 2 7 7
     -8.54350346292745486780e-04 	 4 2 8 1
      3.02221689961265345490e-04 	 4 2 8 2
      5.38169052679621424430e-04 	 4 2 8 3
      7.41747894722350880345e-05 	 4 2 8 4
     -1.01950942861778084784e-03 	 4 2 8 5
     -1.18404872126904697456e-04 	 4 2 8 6
     -5.90040844107936985827e-04 	 4 2 8 7
      2.63002400685113154472e-04 	 4 2 8 8
      5.59784265710666986693e-03 	 4 3 1 1
     -1.14398918157176325387e-03 	 4 3 2 1
      3.35471358270742142996e-03 	 4 3 2 2
     -1.20796963925898248084e-03 	 4 3 3 1
     -2.22906287610525629230e-04 	 4 3 3 2
      8.04053600297876223946e-03 	 4 3 3 3
      3.37462958578518715073e-04 	 4 3 4 1
      3.47733157454813843475e-06 	 4 3 4 2
      7.87040195646681608153e-04 	 4 3 4 3
      1.49560153294633554899e-03 	 4 3 4 4
      3.80279059685681929646e-04 	 4 3 5 1
     -1.87492372238279926848e-04 	 4 3 5 2
      1.48434735302781402322e-03 	 4 3 5 3
     -4.64003184191749738861e-04 	 4 3 5 4
     -1.70878963027836232487e-03 	 4 3 5 5
      6.24322728426953050575e-04 	 4 3 6 1
      2.80249671662588279060e-04 	 4 3 6 2
      9.51453917969883483131e-04 	 4 3 6 3
     -1.13026087178355908944e-03 	 4 3 6 4
     -6.43994205701733371180e-04 	 4 3 6 5
      2.02808595989140876339e-03 	 4 3 6 6
      5.67381804260735748968e-04 	 4 3 7 1
     -1.38509974636815438821e-04 	 4 3 7 2
      8.39876376010334772977e-04 	 4 3 7 3
     -1.50372219468709552616e-03 	 4 3 7 4
     -6.78892370679315100904e-04 	 4 3 7 5
     -1.30896659725138002871e-03 	 4 3 7 6
     -1.86362820370758680913e-03 	 4 3 7 7
     -2.42554848156466252261e-04 	 4 3 8 1
      1.20518281211414032220e-04 	 4 3 8 2
     -1.21467635811027584516e-03 	 4 3 8 3
      4.98711834502751612599e-04 	 4 3 8 4
      1.33167260886522310394e-03 	 4 3 8 5
      5.45523189245132275084e-04 	 4 3 8 6
      3.41990758113707197467e-04 	 4 3 8 7
      5.76851156534597970388e-04 	 4 3 8 8
      1.88651272925133950409e-01 	 4 4 1 1
     -2.79332802323235644681e-03 	 4 4 2 1
      2.61638094334671944541e-01 	 4 4 2 2
     -1.09567561554530564644e-03 	 4 4 3 1
     -1.52856179703878707933e-03 	 4 4 3 2
      1.73245743658481055061e-01 	 4 4 3 3
      5.70331766171880243099e-03 	 4 4 4 1
      4.96066393362319148219e-03 	 4 4 4 2
      1.49560153294630085452e-03 	 4 4 4 3
      4.13879647619019241933e-01 	 4 4 4 4
      6.12190942327749121343e-04 	 4 4 5 1
      8.18210484927846346676e-04 	 4 4 5 2
      3.28939091068757125287e-04 	 4 4 5 3
     -4.11336204932074428475e-03 	 4 4 5 4
      1.72511527748316739750e-01 	 4 4 5 5
     -3.43274724002977588491e-03 	 4 4 6 1
      2.74373092570725802403e-03 	 4 4 6 2
     -4.19372322832847039230e-04 	 4 4 6 3
     -1.07264767406519065385e-02 	 4 4 6 4
      1.68286540247624370747e-03 	 4 4 6 5
      1.41216053790043316596e-01 	 4 4 6 6
      2.96412362142062539225e-03 	 4 4 7 1
     -6.95771594635673056028e-03 	 4 4 7 2
      3.33156561723380647416e-03 	 4 4 7 3
     -1.72527830802529820453e-02 	 4 4 7 4
     -3.50972639543492299224e-03 	 4 4 7 5
     -5.55156263422806710295e-03 	 4 4 7 6
      2.59081827121598162744e-01 	 4 4 7 7
     -4.25046759455658881843e-03 	 4 4 8 1
     -2.46783998869635969216e-04 	 4 4 8 2
     -1.83609647945038863097e-03 	 4 4 8 3
      8.25397048761924989613e-03 	 4 4 8 4
     -1.91951700996538911562e-03 	 4 4 8 5
      5.80323766037472597509e-04 	 4 4 8 6
      3.03131815325738830213e-04 	 4 4 8 7
      1.80003472168529576880e-01 	 4 4 8 8
      5.44093055616334114744e-03 	 5 1 1 1
     -4.68324410490914314845e-04 	 5 1 2 1
      3.68251561070550431642e-03 	 5 1 2 2
     -2.78102949885428087518e-04 	 5 1 3 1
     -2.18191977740861159808e-04 	 5 1 3 2
      5.91634012500713091579e-04 	 5 1 3 3
      3.54858462733362311787e-04 	 5 1 4 1
     -6.00054289311757159669e-06 	 5 1 4 2
      3.80279059685688705910e-04 	 5 1 4 3
      6.12190942327797585180e-04 	 5 1 4 4
      1.38649928074337214744e-03 	 5 1 5 1
      6.32180424303726467075e-04 	 5 1 5 2
      1.54668475245687132673e-03 	 5 1 5 3
      2.87827311406465440914e-05 	 5 1 5 4
      1.20366258944329049263e-03 	 5 1 5 5
      5.87397045213421359171e-04 	 5 1 6 1
      5.40324545882111634222e-05 	 5 1 6 2
      5.75591450711087130286e-04 	 5 1 6 3
     -7.90322242208072378231e-04 	 5 1 6 4
     -8.35931452984833714762e-04 	 5 1 6 5
      2.81653513678838248943e-03 	 5 1 6 6
      4.61196211690211076237e-04 	 5 1 7 1
      7.37671519288127111938e-05 	 5 1 7 2
      4.91690489062333955378e-04 	 5 1 7 3
     -1.28988365207134214954e-03 	 5 1 7 4
     -4.26636351064041483960e-04 	 5 1 7 5
     -1.13754135247884011206e-03 	 5 1 7 6
     -1.99081295282036981140e-04 	 5 1 7 7
     -5.28061320488145162153e-04 	 5 1 8 1
     -2.07521840704602593885e-04 	 5 1 8 2
     -1.05270763153554993211e-03 	 5 1 8 3
      2.77134593614020521314e-04 	 5 1 8 4
      1.48422939025945918416e-03 	 5 1 8 5
      5.67177652702238483534e-04 	 5 1 8 6
      2.99819084104960243645e-04 	 5 1 8 7
      2.96762614956452364448e-03 	 5 1 8 8
     -3.93557410630175109889e-03 	 5 2 1 1
      3.08492033912667260043e-03 	 5 2 2 1
     -7.08600475591188248142e-03 	 5 2 2 2
      4.87407826543867126433e-04 	 5 2 3 1
      5.74048719512039321358e-04 	 5 2 3 2
     -2.37423918329866074847e-03 	 5 2 3 3
      2.41006394152950366222e-04 	 5 2 4 1
      1.06462154302430778152e-03 	 5 2 4 2
     -1.87492372238269410087e-04 	 5 2 4 3
      8.18210484927942623828e-04 	 5 2 4 4
      6.32180424303726033394e-04 	 5 2 5 1
      2.37162362430463772092e-03 	 5 2 5 2
     -1.36104951523929353085e-03 	 5 2 5 3
      6.26967459354942730984e-04 	 5 2 5 4
     -2.78449249185336918794e-03 	 5 2 5 5
     -9.62649498816532775587e-04 	 5 2 6 1
     -6.24669092223275896486e-04 	 5 2 6 2
     -5.44753903310150021377e-04 	 5 2 6 3
      7.70225424939118322697e-04 	 5 2 6 4
      5.69628962742992506901e-04 	 5 2 6 5
     -3.94604537122957878259e-03 	 5 2 6 6
      7.35695164650398698413e-05 	 5 2 7 1
      7.01953092331698228629e-04 	 5 2 7 2
     -2.03822002976908881649e-04 	 5 2 7 3
      6.19607657882072595558e-04 	 5 2 7 4
      1.44179474719005194967e-03 	 5 2 7 5
      7.05034626657834997618e-04 	 5 2 7 6
      5.97920557858956907421e-03 	 5 2 7 7
     -4.84401351233348313307e-04 	 5 2 8 1
     -3.00559253904898076356e-04 	 5 2 8 2
      8.74936904192365823459e-04 	 5 2 8 3
     -6.73130011752588026074e-04 	 5 2 8 4
     -2.04531468971377774352e-03 	 5 2 8 5
     -1.38982826427243511469e-04 	 5 2 8 6
     -1.81716622849019952173e-04 	 5 2 8 7
     -6.95674868513528402159e-03 	 5 2 8 8
      1.15372644612292754585e-02 	 5 3 1 1
     -3.61233738929717627941e-03 	 5 3 2 1
      5.94418178793792214426e-03 	 5 3 2 2
     -3.47065427385878253960e-03 	 5 3 3 1
     -9.41157609775013876893e-04 	 5 3 3 2
      2.95615168158604099680e-02 	 5 3 3 3
      4.47529383158674443164e-04 	 5 3 4 1
     -4.29456717288149113481e-04 	 5 3 4 2
      1.48434735302781640846e-03 	 5 3 4 3
      3.28939091068774364102e-04 	 5 3 4 4
      1.54668475245686482152e-03 	 5 3 5 1
     -1.36104951523929873503e-03 	 5 3 5 2
      7.20616724320453840708e-03 	 5 3 5 3
     -9.72859361389587381196e-04 	 5 3 5 4
      3.04643251148347272289e-03 	 5 3 5 5
      2.00007863435768028573e-03 	 5 3 6 1
      7.47378301088124524267e-04 	 5 3 6 2
      2.79804363861709676220e-03 	 5 3 6 3
     -3.12608418985242794350e-03 	 5 3 6 4
     -2.46747387072674458780e-03 	 5 3 6 5
      6.21424492896986788854e-03 	 5 3 6 6
      1.13757162398989987960e-03 	 5 3 7 1
     -7.01445687897595850091e-04 	 5 3 7 2
      2.34101807904633441373e-03 	 5 3 7 3
     -4.80466645392329562425e-03 	 5 3 7 4
     -2.63563008616443661403e-03 	 5 3 7 5
     -3.91862443091148433816e-03 	 5 3 7 6
     -9.51743672261888551400e-03 	 5 3 7 7
     -6.83721378830218153196e-04 	 5 3 8 1
      8.48088462584889327470e-04 	 5 3 8 2
     -4.88840903708605365591e-03 	 5 3 8 3
      7.73305011730907976113e-04 	 5 3 8 4
      6.93080309888073099744e-03 	 5 3 8 5
      1.30815507577803757239e-03 	 5 3 8 6
      5.65590395567072516669e-04 	 5 3 8 7
      5.56173441375053517061e-03 	 5 3 8 8
      1.31532490146686999524e-03 	 5 4 1 1
      5.55788085316022894763e-04 	 5 4 2 1
      1.09185439201630219049e-03 	 5 4 2 2
      3.12159346924603469612e-04 	 5 4 3 1
      6.04515018355072664960e-05 	 5 4 3 2
      3.88926315799996067096e-04 	 5 4 3 3
     -1.30235935600338118348e-04 	 5 4 4 1
      3.06555776323321892574e-04 	 5 4 4 2
     -4.64003184191757436696e-04 	 5 4 4 3
     -4.11336204932076683616e-03 	 5 4 4 4
      2.87827311406455513688e-05 	 5 4 5 1
      6.26967459354932214223e-04 	 5 4 5 2
     -9.72859361389591284323e-04 	 5 4 5 3
      1.45858909678192637596e-03 	 5 4 5 4
     -3.19900788726372410295e-03 	 5 4 5 5
     -2.65777378266144183403e-04 	 5 4 6 1
     -1.41564934314984783607e-04 	 5 4 6 2
     -4.04028347070005833946e-04 	 5 4 6 3
      7.14252579868070299959e-04 	 5 4 6 4
      8.40252625994829314797e-04 	 5 4 6 5
      1.65064750233129579546e-03 	 5 4 6 6
     -3.02767849922914555460e-04 	 5 4 7 1
      1.83481687194693633041e-04 	 5 4 7 2
     -6.29470832756993817561e-04 	 5 4 7 3
      4.85715826903659214121e-04 	 5 4 7 4
      1.68850769419885736802e-03 	 5 4 7 5
      5.76153372972868882233e-04 	 5 4 7 6
      2.33958611532518023085e-03 	 5 4 7 7
     -1.43504684843280775616e-05 	 5 4 8 1
     -5.90870597360144272914e-04 	 5 4 8 2
      3.06178712624522754698e-04 	 5 4 8 3
     -5.80846076098078673011e-04 	 5 4 8 4
     -1.22088605568411879415e-03 	 5 4 8 5
     -3.44793151920906116095e-04 	 5 4 8 6
     -5.86589350122401439504e-04 	 5 4 8 7
     -3.26306677890654582910e-04 	 5 4 8 8
      1.50899238563794863000e-01 	 5 5 1 1
      2.03556172176369322424e-02 	 5 5 2 1
      1.98959077701951286832e-01 	 5 5 2 2
      9.92360891487757169893e-03 	 5 5 3 1
      2.50460829811343993132e-03 	 5 5 3 2
      1.19238191714537103416e-01 	 5 5 3 3
      5.58666443248732880189e-03 	 5 5 4 1
      8.32312093206367606402e-03 	 5 5 4 2
     -1.70878963027835148285e-03 	 5 5 4 3
      1.72511527748316739750e-01 	 5 5 4 4
      1.20366258944324452246e-03 	 5 5 5 1
     -2.78449249185339434143e-03 	 5 5 5 2
      3.04643251148343455897e-03 	 5 5 5 3
     -3.19900788726370111786e-03 	 5 5 5 4
      3.79520482741312337183e-01 	 5 5 5 5
     -8.14000602358443993423e-03 	 5 5 6 1
     -3.16221896660270375412e-03 	 5 5 6 2
     -7.13205105165152369873e-03 	 5 5 6 3
      6.62876736683252858195e-03 	 5 5 6 4
     -2.18350804178786810777e-03 	 5 5 6 5
      1.27527064130107503637e-01 	 5 5 6 6
     -1.87990561679226154523e-04 	 5 5 7 1
      5.98563153245935952729e-03 	 5 5 7 2
     -5.37010067307001209835e-03 	 5 5 7 3
      1.21226222209782318051e-02 	 5 5 7 4
     -4.11308245217263147853e-03 	 5 5 7 5
      9.51387920236587344980e-03 	 5 5 7 6
      2.09014493334032852578e-01 	 5 5 7 7
     -6.19172127421499692013e-03 	 5 5 8 1
     -7.35814409289719823654e-03 	 5 5 8 2
      6.31419052916151746224e-03 	 5 5 8 3
     -9.47714106593326938502e-04 	 5 5 8 4
      6.06412508753583108512e-03 	 5 5 8 5
     -1.86452023985023097527e-03 	 5 5 8 6
     -2.34228569889049489591e-03 	 5 5 8 7
      2.59055314679306092351e-01 	 5 5 8 8
      2.34907426181287931621e-02 	 6 1 1 1
     -5.01180304842887506395e-03 	 6 1 2 1
      2.02773990365302933178e-03 	 6 1 2 2
     -1.08638292459221127290e-03 	 6 1 3 1
     -1.09676650532447269096e-03 	 6 1 3 2
      7.56189551909171222416e-03 	 6 1 3 3
     -7.58815179296224925909e-04 	 6 1 4 1
     -1.12053011780304098352e-03 	 6 1 4 2
      6.24322728426958037905e-04 	 6 1 4 3
     -3.43274724002975463455e-03 	 6 1 4 4
      5.87397045213417889724e-04 	 6 1 5 1
     -9.62649498816541015524e-04 	 6 1 5 2
      2.00007863435767464788e-03 	 6 1 5 3
     -2.65777378266142177629e-04 	 6 1 5 4
     -8.14000602358444860784e-03 	 6 1 5 5
      7.72254905833668313375e-03 	 6 1 6 1
      9.88454839352556581186e-04 	 6 1 6 2
      2.76574424869822314138e-03 	 6 1 6 3
     -3.30390241247773604888e-03 	 6 1 6 4
     -1.66686636373557326568e-03 	 6 1 6 5
      3.72784887563728239979e-02 	 6 1 6 6
      2.75930573073127657739e-04 	 6 1 7 1
     -4.87289932352824952701e-04 	 6 1 7 2
      7.89707944042802216858e-04 	 6 1 7 3
     -1.76850051673761395933e-03 	 6 1 7 4
     -7.42516602064448348955e-04 	 6 1 7 5
     -3.46927727814428776137e-03 	 6 1 7 6
     -9.91959421113105914436e-03 	 6 1 7 7
      1.17861920195550386008e-03 	 6 1 8 1
      5.83615602482127557304e-04 	 6 1 8 2
     -1.74961589146498445145e-03 	 6 1 8 3
      7.13740211530157681909e-04 	 6 1 8 4
      2.50837896546703261955e-03 	 6 1 8 5
      1.20512295707868245971e-03 	 6 1 8 6
      3.08942792121465409708e-04 	 6 1 8 7
      1.09243317803946475737e-03 	 6 1 8 8
      6.93221994553348819235e-03 	 6 2 1 1
     -3.39178848107166142078e-03 	 6 2 2 1
      8.51997595279863073614e-03 	 6 2 2 2
     -1.09698052326230219809e-03 	 6 2 3 1
     -7.64391365841019161144e-04 	 6 2 3 2
      5.15205656466053828896e-03 	 6 2 3 3
     -2.24563602835638393730e-04 	 6 2 4 1
     -5.14522396558366444143e-04 	 6 2 4 2
      2.80249671662593374810e-04 	 6 2 4 3
      2.74373092570724978409e-03 	 6 2 4 4
      5.40324545882087985062e-05 	 6 2 5 1
     -6.24669092223293135301e-04 	 6 2 5 2
      7.47378301088124632687e-04 	 6 2 5 3
     -1.41564934314976814721e-04 	 6 2 5 4
     -3.16221896660271459614e-03 	 6 2 5 5
      9.88454839352554412782e-04 	 6 2 6 1
      9.91309093227296222323e-04 	 6 2 6 2
      7.98819111512905554937e-04 	 6 2 6 3
     -9.91964881390774945100e-04 	 6 2 6 4
     -4.27113000532322031541e-04 	 6 2 6 5
      8.19101639157877176034e-03 	 6 2 6 6
      2.17020002366627028263e-04 	 6 2 7 1
     -5.74591226340606252461e-04 	 6 2 7 2
      3.21764088681876774412e-04 	 6 2 7 3
     -7.97005714761263458178e-04 	 6 2 7 4
     -3.11232558381736347259e-04 	 6 2 7 5
     -9.41476666507383148745e-04 	 6 2 7 6
     -2.50680187376038469960e-03 	 6 2 7 7
      3.08142517543925269306e-04 	 6 2 8 1
      8.07151579993156350658e-04 	 6 2 8 2
     -7.35019974036434900651e-04 	 6 2 8 3
      5.82278062671929478970e-04 	 6 2 8 4
      7.54793381806087961342e-04 	 6 2 8 5
      2.22283119522764718162e-04 	 6 2 8 6
      5.91423982632581781110e-05 	 6 2 8 7
      1.52504842979906849940e-03 	 6 2 8 8
      1.53117782025821852487e-02 	 6 3 1 1
     -3.78733123339437642574e-03 	 6 3 2 1
      3.35375597859249299434e-03 	 6 3 2 2
     -2.76537932367050326085e-03 	 6 3 3 1
     -7.98607690055751261518e-04 	 6 3 3 2
      2.04625341756494473489e-02 	 6 3 3 3
     -2.48613056749317823304e-04 	 6 3 4 1
     -5.41406577528358496677e-04 	 6 3 4 2
      9.51453917969885976796e-04 	 6 3 4 3
     -4.19372322832845250296e-04 	 6 3 4 4
      5.75591450711085829244e-04 	 6 3 5 1
     -5.44753903310155659229e-04 	 6 3 5 2
      2.79804363861709502748e-03 	 6 3 5 3
     -4.04028347070002418710e-04 	 6 3 5 4
     -7.13205105165151936192e-03 	 6 3 5 5
      2.76574424869822617715e-03 	 6 3 6 1
      7.98819111512907723341e-04 	 6 3 6 2
      2.43931951108742814394e-03 	 6 3 6 3
     -2.46794698564966339185e-03 	 6 3 6 4
     -1.37118781672706580889e-03 	 6 3 6 5
      2.04626271303510534616e-02 	 6 3 6 6
      5.74048846114292199601e-04 	 6 3 7 1
     -5.43882268541917416639e-04 	 6 3 7 2
      1.36861488604137003337e-03 	 6 3 7 3
     -2.29265722257640004733e-03 	 6 3 7 4
     -8.69206167412333425247e-04 	 6 3 7 5
     -2.79582486663803187615e-03 	 6 3 7 6
     -7.12640576007990498436e-03 	 6 3 7 7
      2.52420826742689227012e-04 	 6 3 8 1
      5.45191195671985333673e-04 	 6 3 8 2
     -2.46700417865064643153e-03 	 6 3 8 3
      7.50485955452454087805e-04 	 6 3 8 4
      2.29418375273700032163e-03 	 6 3 8 5
      9.49486899814520782064e-04 	 6 3 8 6
      3.99849055951935494508e-04 	 6 3 8 7
     -4.24176556272800946937e-04 	 6 3 8 8
     -1.22242180333900652550e-02 	 6 4 1 1
      3.46800499478460257444e-03 	 6 4 2 1
     -7.67400237076724858060e-03 	 6 4 2 2
      1.74985199293595477914e-03 	 6 4 3 1
      7.35227842997671424130e-04 	 6 4 3 2
     -7.26714461738242178263e-03 	 6 4 3 3
     -5.76098103970338888506e-04 	 6 4 4 1
      5.33781752458571787275e-04 	 6 4 4 2
     -1.13026087178356559465e-03 	 6 4 4 3
     -1.07264767406518943954e-02 	 6 4 4 4
     -7.90322242208074221374e-04 	 6 4 5 1
      7.70225424939124068968e-04 	 6 4 5 2
     -3.12608418985242967822e-03 	 6 4 5 3
      7.14252579868064228427e-04 	 6 4 5 4
      6.62876736683251123472e-03 	 6 4 5 5
     -3.30390241247773474784e-03 	 6 4 6 1
     -9.91964881390782317674e-04 	 6 4 6 2
     -2.46794698564966382553e-03 	 6 4 6 3
      4.67986745907695601832e-03 	 6 4 6 4
      1.98138950377467135122e-03 	 6 4 6 5
     -2.90973706136013303414e-02 	 6 4 6 6
     -1.05191314214401034424e-03 	 6 4 7 1
      8.71649074715307890446e-04 	 6 4 7 2
     -1.45801007377768690292e-03 	 6 4 7 3
      4.20164980198831864572e-03 	 6 4 7 4
      1.25677403780766910359e-03 	 6 4 7 5
      4.88475756413333812161e-03 	 6 4 7 6
      6.30917806014121094332e-03 	 6 4 7 7
      1.95533089702730798016e-04 	 6 4 8 1
     -5.44823804794310239188e-04 	 6 4 8 2
      2.55459208695812739140e-03 	 6 4 8 3
     -9.79417086524868654718e-04 	 6 4 8 4
     -3.81127908606244221110e-03 	 6 4 8 5
     -1.21180693330494239530e-03 	 6 4 8 6
     -2.98394354975934337788e-04 	 6 4 8 7
     -1.83228948799511346876e-03 	 6 4 8 8
     -4.40687046551193045002e-03 	 6 5 1 1
      1.46560225310375397828e-03 	 6 5 2 1
     -1.82874356467684811081e-03 	 6 5 2 2
      7.91273105786262885564e-04 	 6 5 3 1
      3.22447511375644152529e-04 	 6 5 3 2
     -1.34758555174085818164e-03 	 6 5 3 3
     -1.86395207820549404718e-04 	 6 5 4 1
      3.04605136879193853436e-04 	 6 5 4 2
     -6.43994205701731528037e-04 	 6 5 4 3
      1.68286540247626105471e-03 	 6 5 4 4
     -8.35931452984835666326e-04 	 6 5 5 1
      5.69628962742984809066e-04 	 6 5 5 2