&FCI NORB=8,NELEC=0,MS2=0
ORBSYM=1,1,1,1,
ISYM=1,
/
      4.07806993339547771416e-02 	 1 1 1 1
     -8.34836295623891510437e-04 	 1 2 1 1
     -1.29057875054366093942e-02 	 1 3 1 1
      1.02744779290643009281e-03 	 1 4 1 1
     -4.65344515528643646457e-03 	 1 5 1 1
     -8.52047687259712771893e-04 	 1 6 1 1
      1.77435168320884302517e-02 	 1 7 1 1
     -2.97958004434707279112e-03 	 1 8 1 1
     -8.34836295623882728399e-04 	 2 1 1 1
      1.28086625528223922027e-02 	 2 2 1 1
     -9.47869153638616034063e-03 	 2 3 1 1
      1.95382080577745885497e-03 	 2 4 1 1
     -1.19327501451906448776e-02 	 2 5 1 1
      6.53065894395621999655e-04 	 2 6 1 1
      8.01556426831681080591e-03 	 2 7 1 1
      1.13002866720132255467e-03 	 2 8 1 1
     -1.29057875054366093942e-02 	 3 1 1 1
     -9.47869153638615687119e-03 	 3 2 1 1
      4.25549247338178407429e-02 	 3 3 1 1
     -4.43085897811430415305e-04 	 3 4 1 1
      9.55432464934921166048e-04 	 3 5 1 1
      1.67247433164347198212e-03 	 3 6 1 1
      3.73291676811665423460e-03 	 3 7 1 1
     -1.39178064593510749866e-03 	 3 8 1 1
      1.02744779290642879177e-03 	 4 1 1 1
      1.95382080577745798761e-03 	 4 2 1 1
     -4.43085897811429927414e-04 	 4 3 1 1
     -4.58314748024126472625e-02 	 4 4 1 1
      3.80132506294568104071e-04 	 4 5 1 1
      2.18642461704126028071e-03 	 4 6 1 1
      2.41757508680211609994e-04 	 4 7 1 1
     -1.33571795491967538864e-03 	 4 8 1 1
     -4.65344515528643646457e-03 	 5 1 1 1
     -1.19327501451906552860e-02 	 5 2 1 1
      9.55432464934917479761e-04 	 5 3 1 1
      3.80132506294569838794e-04 	 5 4 1 1
      9.27559973395590715850e-03 	 5 5 1 1
     -2.47128183763089225022e-03 	 5 6 1 1
      3.44622497118146240910e-03 	 5 7 1 1
     -5.97246381943245495394e-03 	 5 8 1 1
     -8.52047687259709627706e-04 	 6 1 1 1
      6.53065894395620373351e-04 	 6 2 1 1
      1.67247433164347263264e-03 	 6 3 1 1
      2.18642461704125030605e-03 	 6 4 1 1
     -2.47128183763088617869e-03 	 6 5 1 1
     -4.49918338937621981044e-02 	 6 6 1 1
     -3.03527542377232109269e-03 	 6 7 1 1
     -1.52469678945997100077e-03 	 6 8 1 1
      1.77435168320884129045e-02 	 7 1 1 1
      8.01556426831680560174e-03 	 7 2 1 1
      3.73291676811666117350e-03 	 7 3 1 1
      2.41757508680211664204e-04 	 7 4 1 1
      3.44622497118146067438e-03 	 7 5 1 1
     -3.03527542377231849061e-03 	 7 6 1 1
      7.01380756850126657609e-02 	 7 7 1 1
     -4.52004120159590059604e-04 	 7 8 1 1
     -2.97958004434707149008e-03 	 8 1 1 1
      1.13002866720131258001e-03 	 8 2 1 1
     -1.39178064593510945023e-03 	 8 3 1 1
     -1.33571795491967408760e-03 	 8 4 1 1
     -5.97246381943245061713e-03 	 8 5 1 1
     -1.52469678945997793966e-03 	 8 6 1 1
     -4.52004120159589246452e-04 	 8 7 1 1
     -8.45032614769319727344e-03 	 8 8 1 1
      0.00000000000000000000e+00 	 0 0 0 0
