&FCI NORB=11,NELEC=0,MS2=0
ORBSYM=1,1,1,1,
ISYM=1,
/
      1.68041397481259770219e-02 	 1 1 1 1
      4.71669856898864533340e-03 	 1 2 1 1
     -3.31051053183076347125e-03 	 1 3 1 1
      3.41167321835717093567e-03 	 1 4 1 1
     -1.19869394084472420149e-03 	 1 5 1 1
      3.18439314472927954836e-04 	 1 6 1 1
      4.86918883899304603263e-03 	 1 7 1 1
     -1.23703603590785238091e-03 	 1 8 1 1
      1.23111215811259693508e-03 	 1 9 1 1
      6.34445662978326292009e-03 	 1 10 1 1
      6.26465001066230011556e-03 	 1 11 1 1
      4.71669856898864967021e-03 	 2 1 1 1
      5.58205972233773092817e-02 	 2 2 1 1
      8.19934445822220639259e-04 	 2 3 1 1
     -8.20248662217183156786e-03 	 2 4 1 1
     -3.84628761122076257960e-04 	 2 5 1 1
      5.28880853297120047049e-04 	 2 6 1 1
     -3.91436557633967081166e-03 	 2 7 1 1
     -2.37662615374258350681e-03 	 2 8 1 1
      2.02939934015228338332e-03 	 2 9 1 1
     -6.18300942208150228901e-03 	 2 10 1 1
     -3.01728577112858305578e-03 	 2 11 1 1
     -3.31051053183076997646e-03 	 3 1 1 1
      8.19934445822222699243e-04 	 3 2 1 1
      7.47134306821740090676e-02 	 3 3 1 1
      3.89079933799410960377e-03 	 3 4 1 1
      2.10055059637239883064e-05 	 3 5 1 1
      1.89427523795568158657e-03 	 3 6 1 1
      4.45664684756801737775e-03 	 3 7 1 1
      1.59080656310642081473e-03 	 3 8 1 1
      1.77580810195259830402e-04 	 3 9 1 1
      2.00614076401555178550e-03 	 3 10 1 1
      2.60731559211564885292e-03 	 3 11 1 1
      3.41167321835717093567e-03 	 4 1 1 1
     -8.20248662217183677203e-03 	 4 2 1 1
      3.89079933799411263953e-03 	 4 3 1 1
      3.50180999574546611419e-02 	 4 4 1 1
     -3.84946732874579813314e-04 	 4 5 1 1
     -1.72660881648337822224e-03 	 4 6 1 1
     -1.19181990664201896413e-02 	 4 7 1 1
     -3.03135085796336261124e-03 	 4 8 1 1
     -7.25493451122805142056e-04 	 4 9 1 1
     -5.23422771475088623172e-03 	 4 10 1 1
     -5.08309701361123536523e-03 	 4 11 1 1
     -1.19869394084472203309e-03 	 5 1 1 1
     -3.84628761122076257960e-04 	 5 2 1 1
      2.10055059637236461051e-05 	 5 3 1 1
     -3.84946732874578403851e-04 	 5 4 1 1
     -6.70253421139139216045e-02 	 5 5 1 1
     -9.03239041461338800594e-05 	 5 6 1 1
      6.93958919110084317995e-04 	 5 7 1 1
     -3.86988257318391423029e-04 	 5 8 1 1
     -1.30981846996154784176e-04 	 5 9 1 1
     -4.27333564859520224476e-04 	 5 10 1 1
     -2.21912299357078702687e-04 	 5 11 1 1
      3.18439314472926653793e-04 	 6 1 1 1
      5.28880853297117336544e-04 	 6 2 1 1
      1.89427523795568267077e-03 	 6 3 1 1
     -1.72660881648337583699e-03 	 6 4 1 1
     -9.03239041461331888805e-05 	 6 5 1 1
      3.47146447615058958980e-02 	 6 6 1 1
     -6.97725836031022964012e-03 	 6 7 1 1
     -4.22111019266384508708e-03 	 6 8 1 1
     -1.95466453645537149852e-03 	 6 9 1 1
     -9.36620719824535251721e-04 	 6 10 1 1
     -3.99093635052521870932e-03 	 6 11 1 1
      4.86918883899304169582e-03 	 7 1 1 1
     -3.91436557633967861791e-03 	 7 2 1 1
      4.45664684756801564303e-03 	 7 3 1 1
     -1.19181990664202226010e-02 	 7 4 1 1
      6.93958919110086811660e-04 	 7 5 1 1
     -6.97725836031022964012e-03 	 7 6 1 1
      2.97339582242266593781e-02 	 7 7 1 1
      5.07039938988051563235e-03 	 7 8 1 1
     -5.08760962997299986260e-03 	 7 9 1 1
     -3.89519108881569145128e-03 	 7 10 1 1
     -1.49525236588099394441e-02 	 7 11 1 1
     -1.23703603590785173039e-03 	 8 1 1 1
     -2.37662615374257093007e-03 	 8 2 1 1
      1.59080656310642211577e-03 	 8 3 1 1
     -3.03135085796332704941e-03 	 8 4 1 1
     -3.86988257318394025114e-04 	 8 5 1 1
     -4.22111019266384508708e-03 	 8 6 1 1
      5.07039938988051649971e-03 	 8 7 1 1
      5.35052493061847420086e-02 	 8 8 1 1
     -3.12161122207255245162e-03 	 8 9 1 1
     -6.92954131552715995451e-03 	 8 10 1 1
     -4.62700826099557926095e-04 	 8 11 1 1
      1.23111215811259650139e-03 	 9 1 1 1
      2.02939934015226690345e-03 	 9 2 1 1
      1.77580810195261754860e-04 	 9 3 1 1
     -7.25493451122804816796e-04 	 9 4 1 1
     -1.30981846996154621546e-04 	 9 5 1 1
     -1.95466453645537019748e-03 	 9 6 1 1
     -5.08760962997300333205e-03 	 9 7 1 1
     -3.12161122207254594640e-03 	 9 8 1 1
      9.51902913959126323329e-02 	 9 9 1 1
     -2.04362384923417262153e-03 	 9 10 1 1
     -4.67169270460864038963e-03 	 9 11 1 1
      6.34445662978325251175e-03 	 10 1 1 1
     -6.18300942208149708484e-03 	 10 2 1 1
      2.00614076401555178550e-03 	 10 3 1 1
     -5.23422771475087929283e-03 	 10 4 1 1
     -4.27333564859515670827e-04 	 10 5 1 1
     -9.36620719824535360142e-04 	 10 6 1 1
     -3.89519108881570966588e-03 	 10 7 1 1
     -6.92954131552715128090e-03 	 10 8 1 1
     -2.04362384923417305521e-03 	 10 9 1 1
      5.61877430004830390187e-03 	 10 10 1 1
     -4.87150188409952653035e-03 	 10 11 1 1
      6.26465001066229491139e-03 	 11 1 1 1
     -3.01728577112857828529e-03 	 11 2 1 1
      2.60731559211564798556e-03 	 11 3 1 1
     -5.08309701361123189578e-03 	 11 4 1 1
     -2.21912299357078269006e-04 	 11 5 1 1
     -3.99093635052522044404e-03 	 11 6 1 1
     -1.49525236588099446483e-02 	 11 7 1 1
     -4.62700826099554077177e-04 	 11 8 1 1
     -4.67169270460864212435e-03 	 11 9 1 1
     -4.87150188409952913243e-03 	 11 10 1 1
     -7.42938328670075462390e-03 	 11 11 1 1
      0.00000000000000000000e+00 	 0 0 0 0
