14
Step 0  E=-434.0404764653  phi=36.880  theta=73.569
C  -1.9018556092  1.1727398641 -0.0477698996
C  -0.4769247451  1.2089486655 -0.0526054164
C   0.1990036141  0.0321125923 -0.0408460008
C  -2.6171422119 -0.0300104780 -0.0148617065
H  -2.4414652663  2.1131877958 -0.0591288979
H   0.0607121480  2.1475430871 -0.0520113188
H  -3.6979408862 -0.0202194612 -0.0040692368
N   1.6712992200  0.0356084166  0.0208446299
O   2.2178718853 -1.0813883153  0.1287215849
O   2.2434018648  1.1375874997 -0.0390816369
C  -1.9264699814 -1.2275068760  0.0051199900
H  -2.4531559573 -2.1741044372  0.0390356556
C  -0.4586884080 -1.2763052054 -0.0365036890
H   0.0223458147 -2.0240099432  0.5960343306
14
Step 1  E=-434.0431269571  phi=36.837  theta=73.560
C  -1.9016508135  1.1726729288 -0.0477611591
C  -0.4775902075  1.2091074674 -0.0527640088
C   0.1986245226  0.0307829288 -0.0409421598
C  -2.6167140558 -0.0296172443 -0.0150570503
H  -2.4400917987  2.1109579607 -0.0589458216
H   0.0582292759  2.1444120364 -0.0522174629
H  -3.6950305293 -0.0197689019 -0.0038165772
N   1.6725197397  0.0354332142  0.0209591074
O   2.2173153221 -1.0796620347  0.1285816875
O   2.2426587075  1.1359896144 -0.0390296248
C  -1.9249976116 -1.2278094243  0.0049595582
H  -2.4514057068 -2.1709452432  0.0401723795
C  -0.4597443117 -1.2748028284 -0.0352142819
H   0.0224058791 -2.0260922985  0.5862848488
14
Step 2  E=-434.0472108796  phi=36.766  theta=73.545
C  -1.9012997247  1.1725444226 -0.0477473927
C  -0.4787040724  1.2093113060 -0.0530274021
C   0.1979964538  0.0286099328 -0.0410996463
C  -2.6159637316 -0.0289809437 -0.0153799162
H  -2.4379835382  2.1075552476 -0.0586424378
H   0.0543784242  2.1396746602 -0.0525594480
H  -3.6905460898 -0.0190331197 -0.0034019482
N   1.6745018732  0.0351396165  0.0211466569
O   2.2164073829 -1.0768163600  0.1283519420
O   2.2414366785  1.1333540779 -0.0389441303
C  -1.9225606030 -1.2282610147  0.0046957104
H  -2.4486713119 -2.1660990392  0.0420563328
C  -0.4614973063 -1.2723030119 -0.0330971772
H   0.0226754502 -2.0297775717  0.5703336806
14
Step 3  E=-434.0523288441  phi=36.672  theta=73.524
C  -1.9007896531  1.1723319635 -0.0477298284
C  -0.4802712181  1.2094754605 -0.0533941120
C   0.1971255134  0.0256569255 -0.0413142167
C  -2.6148411883 -0.0281291469 -0.0158262030
H  -2.4353900550  2.1034121936 -0.0582212030
H   0.0495583490  2.1339955629 -0.0530353207
H  -3.6849897325 -0.0180347130 -0.0028348076
N   1.6771680459  0.0347257197  0.0214023576
O   2.2151776756 -1.0728992089  0.1280375169
O   2.2397606523  1.1297227745 -0.0388269812
C  -1.9191862821 -1.2287880748  0.0043338828
H  -2.4452031760 -2.1601450908  0.0446708267
C  -0.4639343721 -1.2688158069 -0.0301967360
H   0.0233797851 -2.0353455869  0.5485838967
14
Step 4  E=-434.0580775955  phi=36.557  theta=73.498
C  -1.9001067233  1.1720102394 -0.0477102339
C  -0.4822936413  1.2094945458 -0.0538618893
C   0.1960211238  0.0220099952 -0.0415798074
C  -2.6132862843 -0.0270984436 -0.0163900872
H  -2.4326175273  2.0990587985 -0.0576852600
H   0.0442604786  2.1281872240 -0.0536431358
H  -3.6789710412 -0.0168050461 -0.0021280809
N   1.6804107838  0.0341898167  0.0217192283
O   2.2136678053 -1.0679790244  0.1276457278
O   2.2376654451  1.1251552107 -0.0386808120
C  -1.9149168861 -1.2292983801  0.0038819610
H  -2.4413033708 -2.1537945337  0.0479903507
C  -0.4670315774 -1.2643633149 -0.0265682439
H   0.0247739368 -2.0430989058  0.5215149435
14
Step 5  E=-434.0641107788  phi=36.426  theta=73.465
C  -1.8992395875  1.1715566972 -0.0476909501
C  -0.4847652782  1.2092555791 -0.0544275890
C   0.1946967086  0.0177756939 -0.0418884706
C  -2.6112380720 -0.0259326790 -0.0170639390
H  -2.4299874376  2.0950504552 -0.0570382205
H   0.0390001128  2.1230893811 -0.0543815757
H  -3.6731184598 -0.0153839227 -0.0012982222
N   1.6840940380  0.0335313107  0.0220881608
O   2.2119313850 -1.0621458968  0.1271860992
O   2.2351956775  1.1197291879 -0.0385091276
C  -1.9098136425 -1.2296913635  0.0033505895
H  -2.4372767881 -2.1477926377  0.0519773815
C  -0.4707482589 -1.2589880286 -0.0222719570
H   0.0270807115 -2.0532685768  0.4896097781
14
Step 6  E=-434.0701250242  phi=36.282  theta=73.426
C  -1.8981836664  1.1709579498 -0.0476749087
C  -0.4876656839  1.2086533257 -0.0550870578
C   0.1931703310  0.0130783569 -0.0422303610
C  -2.6086452623 -0.0246809913 -0.0178382255
H  -2.4277892148  2.0918854748 -0.0562840433
H   0.0342339675  2.1194252778 -0.0552505095
H  -3.6679791411 -0.0138190837 -0.0003656919
N   1.6880551694  0.0327518059  0.0224978757
O   2.2100338417 -1.0555126487  0.1266704146
O   2.2324054205  1.1135413800 -0.0383163712
C  -1.9039616053 -1.2298699618  0.0027535838
H  -2.4333733939 -2.1428056049  0.0565773427
C  -0.4750201875 -1.2527627380 -0.0173674913
H   0.0304174217 -2.0659001720  0.4532875432
14
Step 7  E=-434.0757853681  phi=36.133  theta=73.381
C  -1.8969452021  1.1702157452 -0.0476656112
C  -0.4909538644  1.2076053475 -0.0558350774
C   0.1914651552  0.0080571270 -0.0425937958
C  -2.6054761945 -0.0233957836 -0.0187014245
H  -2.4262344834  2.0899256032 -0.0554271562
H   0.0302794299  2.1176617323 -0.0562513399
H  -3.6639246319 -0.0121654645  0.0006441257
N   1.6921077878  0.0318562891  0.0229349310
O   2.2080518726 -1.0482155915  0.1261127310
O   2.2293575120  1.1067075902 -0.0381079839
C  -1.8974742117 -1.2297521261  0.0021083859
H  -2.4297322516 -2.1393120304  0.0617120884
C  -0.4797532509 -1.2457997165 -0.0119105855
H   0.0347276862 -2.0807446928  0.4128668838
14
Step 8  E=-434.0806626990  phi=35.982  theta=73.331
C  -1.8955442035  1.1693510735 -0.0476670509
C  -0.4945641381  1.2060633883 -0.0566653937
C   0.1896096112  0.0028626599 -0.0429653953
C  -2.6017263268 -0.0221307390 -0.0196399919
H  -2.4254225483  2.0893363062 -0.0544729463
H   0.0272567678  2.1179098512 -0.0573870239
H  -3.6610835921 -0.0104841483  0.0016997969
N   1.6960456704  0.0308542551  0.0233838203
O   2.2060723840 -1.0404145718  0.1255293209
O   2.2261224316  1.0993624249 -0.0378904424
C  -1.8904960574 -1.2292796928  0.0014364288
H  -2.4263419778 -2.1375246433  0.0672733201
C  -0.4848197946 -1.2382558930 -0.0059538853
H   0.0397406240 -2.0971902413  0.3685800055
14
Step 9  E=-434.0842641053  phi=35.834  theta=73.274
C  -1.8940154437  1.1684051684 -0.0476835687
C  -0.4984057276  1.2040182417 -0.0575708409
C   0.1876371744 -0.0023465859 -0.0433302902
C  -2.5974215929 -0.0209389288 -0.0206384334
H  -2.4253256083  2.0900615340 -0.0534286344
H   0.0250726462  2.1198978683 -0.0586617374
H  -3.6593191957 -0.0088409877  0.0027629797
N   1.6996479554  0.0297605696  0.0238271962
O   2.2041907453 -1.0322918540  0.1249385021
O   2.2227766446  1.0916580898 -0.0376712582
C  -1.8832023639 -1.2284227034  0.0007632182
H  -2.4230309294 -2.1373637937  0.0731182031
C  -0.4900595231 -1.2303310503  0.0004481919
H   0.0449759870 -2.1142663980  0.3206380961
14
Step 10  E=-434.0861704522  phi=35.696  theta=73.212
C  -1.8924070699  1.1674368648 -0.0477196549
C  -0.5023667381  1.2014972227 -0.0585435450
C   0.1855857124 -0.0074086114 -0.0436723643
C  -2.5926169837 -0.0198710133 -0.0216795232
H  -2.4257975775  2.0918396054 -0.0523043988
H   0.0234507478  2.1230256733 -0.0600802651
H  -3.6582577954 -0.0073049316  0.0037883771
N   1.7026857578  0.0285958060  0.0242462488
O   2.2025082074 -1.0240493449  0.1243603071
O   2.2194003679  1.0837620310 -0.0374589223
C  -1.8757942210 -1.2271785028  0.0001179685
H  -2.4194926132 -2.1384898397  0.0790694139
C  -0.4952856338 -1.2222581093  0.0072324149
H   0.0497990115 -2.1307307246  0.2693246482
14
Step 11  E=-434.0862078212  phi=35.570  theta=73.145
C  -1.8907769718  1.1665167307 -0.0477797267
C  -0.5063217765  1.1985557992 -0.0595751580
C   0.1834963961 -0.0121627592 -0.0439745141
C  -2.5873909853 -0.0189735103 -0.0227446736
H  -2.4266040012  2.0942556964 -0.0511144822
H   0.0219992648  2.1264829321 -0.0616472826
H  -3.6573612088 -0.0059461660  0.0047248506
N   1.7049302548  0.0273857612  0.0246212616
O   2.2011283829 -1.0159037004  0.1238159557
O   2.2160747670  1.0758531917 -0.0372627763
C  -1.8684896773 -1.2255664788 -0.0004672586
H  -2.4153408000 -2.1403835349  0.0849207079
C  -0.5002952520 -1.2142872597  0.0143204530
H   0.0535106531 -2.1452169503  0.2150805528
14
Step 12  E=-434.0845501208  phi=35.462  theta=73.072
C  -1.8891875615  1.1657191782 -0.0478679290
C  -0.5101415288  1.1952664554 -0.0606570590
C   0.1814122286 -0.0164551504 -0.0442189505
C  -2.5818374744 -0.0182871033 -0.0238144137
H  -2.4274653153  2.0968173628 -0.0498779877
H   0.0202949291  2.1293954731 -0.0633667236
H  -3.6560243034 -0.0048342124  0.0055176645
N   1.7061621537  0.0261599023  0.0249323572
O   2.2001527636 -1.0080790041  0.1233271030
O   2.2128786589  1.0681167721 -0.0370928000
C  -1.8615116571 -1.2236203526 -0.0009588359
H  -2.4101804802 -2.1424512888  0.0904474544
C  -0.5048822219 -1.2066674762  0.0216157479
H   0.0554485821 -2.1564056967  0.1585514604
14
Step 13  E=-434.0816957080  phi=35.375  theta=72.995
C  -1.8876998647  1.1651140592 -0.0479880078
C  -0.5137025144  1.1917078163 -0.0617804581
C   0.1793763086 -0.0201444728 -0.0443876171
C  -2.5760569369 -0.0178449898 -0.0248688930
H  -2.4281038423  2.0990363527 -0.0486191439
H   0.0179633591  2.1309651265 -0.0652413646
H  -3.6536768045 -0.0040360921  0.0061114951
N   1.7061823122  0.0249486491  0.0251604269
O   2.1996753652 -1.0007970181  0.1229148719
O   2.2098848501  1.0607375423 -0.0369593078
C  -1.8550741350 -1.2213800914 -0.0013231243
H  -2.4036788950 -2.1441307646  0.0954203417
C  -0.5088502844 -1.1996289376  0.0290044687
H   0.0550764224 -2.1631800445  0.1005864030
14
Step 14  E=-434.0783302261  phi=35.311  theta=72.913
C  -1.8863677752  1.1647590609 -0.0481432802
C  -0.5168957685  1.1879559369 -0.0629364014
C   0.1774299889 -0.0231077992 -0.0444627140
C  -2.5701485203 -0.0176713054 -0.0258883384
H  -2.4282862723  2.1005023823 -0.0473669723
H   0.0147426426  2.1305808661 -0.0672726591
H  -3.6498722505 -0.0036145768  0.0064536693
N   1.7048230940  0.0237796819  0.0252881859
O   2.1997767470 -0.9942654717  0.1225987122
O   2.2071562928  1.0538919755 -0.0368725610
C  -1.8493680275 -1.2188849795 -0.0015280772
H  -2.3956245070 -2.1449791382  0.0996198937
C  -0.5120253143 -1.1933685607  0.0363599662
H   0.0520487168 -2.1647436122  0.0421942602
14
Step 15  E=-434.0751325302  phi=35.275  theta=72.827
C  -1.8852331201  1.1646937601 -0.0483366659
C  -0.5196338181  1.1840784037 -0.0641157431
C   0.1756110647 -0.0252460663 -0.0444271159
C  -2.5642038371 -0.0177796841 -0.0268534513
H  -2.4278565173  2.1009400366 -0.0461544575
H   0.0105254448  2.1278937431 -0.0694607997
H  -3.6443542279 -0.0036264839  0.0064971394
N   1.7019598552  0.0226738128  0.0253012338
O   2.2005178196 -0.9886653921  0.1223951726
O   2.2047422803  1.0477397022 -0.0368423142
C  -1.8445480896 -1.2161686384 -0.0015445701
H  -2.3859675443 -2.1447356951  0.1028494828
C  -0.5142659236 -1.1880393616  0.0435491604
H   0.0462498003 -2.1606964236 -0.0155259066
14
Step 16  E=-434.0725916536  phi=35.267  theta=72.737
C  -1.8843219587  1.1649357503 -0.0485707192
C  -0.5218557044  1.1801311514 -0.0653091537
C   0.1739520816 -0.0264888346 -0.0442644495
C  -2.5583029165 -0.0181720241 -0.0277457678
H  -2.4267566519  2.1002448827 -0.0450174114
H   0.0053801156  2.1228569453 -0.0718050182
H  -3.6370959810 -0.0041209701  0.0062027960
N   1.6975217424  0.0216412823  0.0251889758
O   2.2019340310 -0.9841389744  0.1223167119
O   2.2026749402  1.0424149998 -0.0368773342
C  -1.8407219803 -1.2132562536 -0.0013471548
H  -2.3748400752 -2.1433567800  0.1049450860
C  -0.5154720692 -1.1837433875  0.0504392754
H   0.0378112194 -2.1510750241 -0.0714648419
14
Step 17  E=-434.0708918940  phi=35.290  theta=72.643
C  -1.8836423984  1.1654789987 -0.0488476291
C  -0.5235299036  1.1761577269 -0.0665071713
C   0.1724788357 -0.0267980116 -0.0439588510
C  -2.5525124167 -0.0188375255 -0.0285479802
H  -2.4250353202  2.0984978036 -0.0439932261
H  -0.0004474103  2.1157342622 -0.0743041455
H  -3.6283126249 -0.0051378175  0.0055408398
N   1.6915008007  0.0206794691  0.0249452998
O   2.2040306320 -0.9807797407  0.1223707049
O   2.2009663097  1.0380191923 -0.0369849498
C  -1.8379425968 -1.2101641091 -0.0009141927
H  -2.3625555213 -2.1410232598  0.1057809382
C  -0.5155913049 -1.1805276709  0.0569041609
H   0.0271134703 -2.1363657594 -0.1245837325
14
Step 18  E=-434.0699006695  phi=35.344  theta=72.546
C  -1.8831841425  1.1662945175 -0.0491691927
C  -0.5246549449  1.1721909303 -0.0677002670
C   0.1712091628 -0.0261703108 -0.0434946366
C  -2.5468861065 -0.0197520750 -0.0292441955
H  -2.4228434023  2.0959572825 -0.0431196693
H  -0.0065505079  2.1070773878 -0.0769573852
H  -3.6184457028 -0.0067057518  0.0044910303
N   1.6839582883  0.0197728190  0.0245689502
O   2.2067797465 -0.9786266292  0.1225588004
O   2.1996063095  1.0346148839 -0.0371706964
C  -1.8362046476 -1.2069016080 -0.0002275472
H  -2.3495876454 -2.1381196276  0.1052708173
C  -0.5146221764 -1.1783829328  0.0628301854
H   0.0147747690 -2.1174952338 -0.1739910095
14
Step 19  E=-434.0692633500  phi=35.432  theta=72.446
C  -1.8829199220  1.1673334452 -0.0495367682
C  -0.5252574587  1.1682570406 -0.0688789236
C   0.1701521407 -0.0246383082 -0.0428561104
C  -2.5414676044 -0.0208780553 -0.0298201121
H  -2.4204166583  2.0930292384 -0.0424338704
H  -0.0123989074  2.0976688602 -0.0797651231
H  -3.6081195911 -0.0088408860  0.0030417434
N   1.6750271455  0.0188952842  0.0240635697
O   2.2101198376 -0.9776630934  0.1228767453
O   2.1985619352  1.0322228512 -0.0374381159
C  -1.8354461187 -1.2034760117  0.0007279415
H  -2.3365291402 -2.1351826025  0.1033649349
C  -0.5126141181 -1.1772453836  0.0681217069
H   0.0016248645 -2.0957937049 -0.2190106817
14
Step 20  E=-434.0685715828  phi=35.552  theta=72.342
C  -1.8828088307  1.1685325457 -0.0499512075
C  -0.5253874861  1.1643828689 -0.0700337579
C   0.1693078242 -0.0222700114 -0.0420276286
C  -2.5362952417 -0.0221646705 -0.0302631194
H  -2.4180453180  2.0902144297 -0.0419716430
H  -0.0173973784  2.0884266830 -0.0827294259
H  -3.5980700682 -0.0115454097  0.0011879289
N   1.6649098310  0.0180148757  0.0234374183
O   2.2139578736 -0.9778213977  0.1233147142
O   2.1977779417  1.0308221202 -0.0377887450
C  -1.8355547038 -1.1998998902  0.0019650187
H  -2.3240315062 -2.1328182812  0.1000428770
C  -0.5096632248 -1.1770026227  0.0727055704
H  -0.0113422309 -2.0729193549 -0.2592325666
14
Step 21  E=-434.0675350714  phi=35.704  theta=72.236
C  -1.8828013403  1.1698218665 -0.0504127647
C  -0.5251112711  1.1606053731 -0.0711557332
C   0.1686675931 -0.0191669012 -0.0409939593
C  -2.5314085798 -0.0235489018 -0.0305623409
H  -2.4160321560  2.0880361141 -0.0417672436
H  -0.0209639950  2.0802727270 -0.0858537569
H  -3.5890492038 -0.0148065881 -0.0010716630
N   1.6538712577  0.0170993308  0.0227028226
O   2.2181740858 -0.9789913113  0.1238580952
O   2.1971791621  1.0303533041 -0.0382222931
C  -1.8363784684 -1.1962006003  0.0034944208
H  -2.3127319760 -2.1315931547  0.0953042529
C  -0.5059035319 -1.1775048948  0.0765333766
H  -0.0230438007 -2.0507287662 -0.2945282722
14
Step 22  E=-434.0660747093  phi=35.885  theta=72.127
C  -1.8828454071  1.1711337871 -0.0509209948
C  -0.5245024404  1.1569824127 -0.0722364919
C   0.1682151057 -0.0154604386 -0.0397409133
C  -2.5268555131 -0.0249572378 -0.0307086594
H  -2.4146435540  2.0869557031 -0.0418535526
H  -0.0226187143  2.0739803299 -0.0891415017
H  -3.5817175295 -0.0185960106 -0.0037372661
N   1.6422272211  0.0161216337  0.0218754419
O   2.2226288015 -0.9810316535  0.1244886054
O   2.1966743900  1.0307247614 -0.0387369757
C  -1.8377391765 -1.1924300603  0.0053248988
H  -2.3031787200 -2.1319150737  0.0891602265
C  -0.5014940949 -1.1785822938  0.0795799003
H  -0.0324148953 -2.0310867468 -0.3250143604
14
Step 23  E=-434.0642915708  phi=36.093  theta=72.016
C  -1.8828927246  1.1724121022 -0.0514746660
C  -0.5236332072  1.1536018420 -0.0732687900
C   0.1679277409 -0.0113070805 -0.0382561674
C  -2.5226982568 -0.0263083402 -0.0306947693
H  -2.4140617314  2.0872904324 -0.0422624942
H  -0.0220645736  2.0700328027 -0.0925932637
H  -3.5765421566 -0.0228689073 -0.0068099178
N   1.6303293753  0.0150642673  0.0209734428
O   2.2271705125 -0.9837828211  0.1251855701
O   2.1961615027  1.0318206981 -0.0393299383
C  -1.8394461852 -1.1886721071  0.0074626408
H  -2.2957694959 -2.1339310852  0.0816298594
C  -0.4966032829 -1.1800666007  0.0818366769
H  -0.0385365202 -2.0156306055 -0.3509534523
14
Step 24  E=-434.0623468601  phi=36.321  theta=71.903
C  -1.8829039713  1.1736193931 -0.0520717266
C  -0.5225675228  1.1505854419 -0.0742469471
C   0.1677783203 -0.0068819048 -0.0365301486
C  -2.5190162152 -0.0275167801 -0.0305152858
H  -2.4143486996  2.0891511503 -0.0430253685
H  -0.0192399978  2.0685327810 -0.0962035088
H  -3.5737235884 -0.0275633666 -0.0102914125
N   1.6185482471  0.0139215275  0.0200166573
O   2.2316442215 -0.9870785800  0.1259271986
O   2.1955332944  1.0335101077 -0.0399976986
C  -1.8413089119 -1.1850445251  0.0099100182
H  -2.2907175892 -2.1374719846  0.0727439462
C  -0.4913929939 -1.1818137481  0.0833017401
H  -0.0407605403 -2.0055347670 -0.3726087551
14
Step 25  E=-434.0603563170  phi=36.565  theta=71.790
C  -1.8828520644  1.1747410862 -0.0527093589
C  -0.5213575588  1.1480850831 -0.0751671742
C   0.1677368685 -0.0023710322 -0.0345568338
C  -2.5159041535 -0.0284978538 -0.0301668969
H  -2.4154314150  2.0924165117 -0.0441727571
H  -0.0143263647  2.0691925863 -0.0999576620
H  -3.5731701017 -0.0325995376 -0.0141820384
N   1.6072559015  0.0126997767  0.0190257744
O   2.2358991784 -0.9907558930  0.1266917235
O   2.1946833947  1.0356554665 -0.0407365415
C  -1.8431466480 -1.1816938958  0.0126638431
H  -2.2880513220 -2.1420629716  0.0625557759
C  -0.4860061834 -1.1837210673  0.0839690094
H  -0.0387964648 -2.0013425402 -0.3900976814
14
Step 26  E=-434.0583880104  phi=36.815  theta=71.676
C  -1.8827229502  1.1757853675 -0.0533841294
C  -0.5200436496  1.1462708938 -0.0760276491
C   0.1677722086  0.0020368656 -0.0323343357
C  -2.5134652677 -0.0291732831 -0.0296484870
H  -2.4171125606  2.0967512576 -0.0457338353
H  -0.0077091940  2.0714090961 -0.1038307963
H  -3.5745264272 -0.0378792521 -0.0184766058
N   1.5968096570  0.0114159507  0.0180215955
O   2.2397953644 -0.9946621727  0.1274583181
O   2.1935116978  1.0381203560 -0.0415428240
C  -1.8447955401 -1.1787834849  0.0157135782
H  -2.2876428996 -2.1469988551  0.0511547077
C  -0.4805603208 -1.1857343683  0.0838219012
H  -0.0327323170 -2.0029207960 -0.4033022416
14
Step 27  E=-434.0565540989  phi=37.065  theta=71.564
C  -1.8825141509  1.1767792351 -0.0540922132
C  -0.5186565902  1.1453138143 -0.0768282736
C   0.1678533023  0.0061595492 -0.0298652147
C  -2.5118002125 -0.0294773338 -0.0289611378
H  -2.4191042059  2.1016639334 -0.0477352030
H   0.0000937125  2.0743978500 -0.1077884994
H  -3.5772481208 -0.0432867401 -0.0231599699
N   1.5875378208  0.0100948791  0.0170243791
O   2.2432083886 -0.9986599140  0.1282077594
O   2.1919288895  1.0407755376 -0.0424131762
C  -1.8461133352 -1.1764764396  0.0190399996
H  -2.2892547250 -2.1514621726  0.0386769865
C  -0.4751472188 -1.1878437034  0.0828339850
H  -0.0229856047 -2.0095485295 -0.4118712688
14
Step 28  E=-434.0550989293  phi=37.306  theta=71.455
C  -1.8822318248  1.1777619165 -0.0548296415
C  -0.5172206765  1.1453663205 -0.0775701425
C   0.1679503543  0.0098301427 -0.0271565369
C  -2.5109942296 -0.0293626562 -0.0281079326
H  -2.4210757411  2.1065892811 -0.0501995848
H   0.0085164834  2.0773467866 -0.1117897284
H  -3.5807018019 -0.0486910314 -0.0282034350
N   1.5797279421  0.0087660197  0.0160532999
O   2.2460327672 -1.0026290590  0.1289228515
O   2.1898598829  1.0435033690 -0.0433446088
C  -1.8469826482 -1.1749176683  0.0226146540
H  -2.2925898356 -2.1546535499  0.0253095714
C  -0.4698374250 -1.1900710047  0.0809759319
H  -0.0102062723 -2.0200992654 -0.4153050515
14
Step 29  E=-434.0543934171  phi=37.531  theta=71.350
C  -1.8818872707  1.1787772706 -0.0555925188
C  -0.5157562391  1.1465448438 -0.0782548234
C   0.1680357891  0.0129053602 -0.0242197602
C  -2.5111048060 -0.0288050196 -0.0270935571
H  -2.4227053646  2.1109768171 -0.0531448108
H   0.0170234605  2.0795546479 -0.1157909295
H  -3.5842687960 -0.0539502921 -0.0335630440
N   1.5736176890  0.0074601182  0.0151260504
O   2.2481837757 -1.0064676556  0.1295886443
O   2.1872461667  1.0462007209 -0.0443345512
C  -1.8473132183 -1.1742176248  0.0264001871
H  -2.2973368545 -2.1559078550  0.0112856915
C  -0.4646863664 -1.1924548377  0.0782253294
H   0.0048351618 -2.0332533623 -0.4130797229
14
Step 30  E=-434.0548269669  phi=37.732  theta=71.251
C  -1.8814936466  1.1798666063 -0.0563771700
C  -0.5142812104  1.1489161760 -0.0788835641
C   0.1680852258  0.0152723534 -0.0210705541
C  -2.5121518440 -0.0278061706 -0.0259237593
H  -2.4237261105  2.1143699530 -0.0565833788
H   0.0251711216  2.0805344177 -0.1197506006
H  -3.5874345344 -0.0589179047 -0.0391800922
N   1.5693882098  0.0062061496  0.0142585981
O   2.2495982020 -1.0100914170  0.1301925078
O   2.1840472236  1.0487807123 -0.0453808485
C  -1.8470432110 -1.1744402899  0.0303514068
H  -2.3032050950 -2.1547807406 -0.0031265358
C  -0.4597399649 -1.1950366437  0.0745757198
H   0.0213473245 -2.0476870342 -0.4047656202
14
Step 31  E=-434.0566584126  phi=37.905  theta=71.159
C  -1.8810633511  1.1810628521 -0.0571802047
C  -0.5128119211  1.1524888861 -0.0794565394
C   0.1680785275  0.0168535976 -0.0177286343
C  -2.5141115397 -0.0263942769 -0.0246047729
H  -2.4239608378  2.1164659022 -0.0605227091
H   0.0326505083  2.0800764442 -0.1236336445
H  -3.5898535964 -0.0634497703 -0.0449836254
N   1.5671597336  0.0050287511  0.0134651016
O   2.2502343624 -1.0134327352  0.1307241157
O   2.1802412390  1.0511736319 -0.0464817460
C  -1.8461394196 -1.1755965333  0.0344168621
H  -2.3099492157 -2.1511004663 -0.0176397846
C  -0.4550386509 -1.1978505456  0.0700427393
H   0.0385929412 -2.0622125381 -0.3901122619
14
Step 32  E=-434.0599016394  phi=38.045  theta=71.076
C  -1.8806062348  1.1823865278 -0.0579985048
C  -0.5113635423  1.1572099918 -0.0799722247
C   0.1680009269  0.0176094225 -0.0142176578
C  -2.5169144228 -0.0246218107 -0.0231428179
H  -2.4233439355  2.1171523844 -0.0649660182
H   0.0393108524  2.0782735322 -0.1274150637
H  -3.5913867673 -0.0674121214 -0.0508943183
N   1.5669891616  0.0039462382  0.0127579648
O   2.2500717142 -1.0164395858  0.1311753941
O   2.1758253283  1.0533273848 -0.0476358807
C  -1.8445962965 -1.1776431461  0.0385407103
H  -2.3173842006 -2.1449856956 -0.0319646477
C  -0.4506197011 -1.2009168466  0.0646669478
H   0.0559385307 -2.0758679498 -0.3690935642
14
Step 33  E=-434.0642933707  phi=38.152  theta=71.004
C  -1.8801286616  1.1838436664 -0.0588291597
C  -0.5099503962  1.1629668468 -0.0804269764
C   0.1678441277  0.0175380675 -0.0105651718
C  -2.5204475163 -0.0225611720 -0.0215437688
H  -2.4219293179  2.1165203479 -0.0699136038
H   0.0451650547  2.0755108547 -0.1310825764
H  -3.5921096293 -0.0706890091 -0.0568289726
N   1.5688694372  0.0029692310  0.0121479936
O   2.2491103217 -1.0190746376  0.1315404741
O   2.1708154577  1.0552077272 -0.0488422948
C  -1.8424340084 -1.1804872463  0.0426646700
H  -2.3253907797 -2.1368310147 -0.0458255549
C  -0.4465182870 -1.2042384583  0.0585138661
H   0.0728838466 -2.0879661317 -0.3419187744
14
Step 34  E=-434.0693506072  phi=38.226  theta=70.942
C  -1.8796334124  1.1854257182 -0.0596693768
C  -0.5085859511  1.1695941730 -0.0808148937
C   0.1676072127  0.0166734279 -0.0068025789
C  -2.5245603062 -0.0202987447 -0.0198130506
H  -2.4198847866  2.1148529059 -0.0753642337
H   0.0503756606  2.0724207890 -0.1346375886
H  -3.5922930467 -0.0731885331 -0.0627047864
N   1.5727305370  0.0020998948  0.0116446119
O   2.2473703302 -1.0213147481  0.1318156755
O   2.1652461629  1.0567984482 -0.0501004771
C  -1.8396959949 -1.1839953887  0.0467298512
H  -2.3339100417 -2.1272612189 -0.0589729319
C  -0.4427676109 -1.2077995163  0.0516719176
H   0.0890760058 -2.0981128712 -0.3090173948
14
Step 35  E=-434.0744902423  phi=38.268  theta=70.891
C  -1.8791204525  1.1871114552 -0.0605164060
C  -0.5072819602  1.1768860641 -0.0811280351
C   0.1672971636  0.0150809015 -0.0029650632
C  -2.5290740639 -0.0179283052 -0.0179557950
H  -2.4174727465  2.1125906371 -0.0813162156
H   0.0552183028  2.0698009520 -0.1380937662
H  -3.5923561217 -0.0748468448 -0.0684424731
N   1.5784419795  0.0013318084  0.0112560855
O   2.2448915012 -1.0231509137  0.1319995342
O   2.1591700761  1.0581015430 -0.0514104350
C  -1.8364466689 -1.1880063837  0.0506782386
H  -2.3429252106 -2.1170559162 -0.0711891347
C  -0.4393982643 -1.2115659085  0.0442488001
H   0.1043102234 -2.1061990158 -0.2710047094
14
Step 36  E=-434.0791604794  phi=38.282  theta=70.853
C  -1.8785885796  1.1888708144 -0.0613675216
C  -0.5060461765  1.1846123290 -0.0813570347
C   0.1669288231  0.0128519114  0.0009085835
C  -2.5337938644 -0.0155447167 -0.0159772660
H  -2.4150175696  2.1102740190 -0.0877676141
H   0.0600208337  2.0684966759 -0.1414724816
H  -3.5927938465 -0.0756291043 -0.0739673233
N   1.5858168001  0.0006504973  0.0109897085
O   2.2417327540 -1.0245886322  0.1320928676
O   2.1526571873  1.0591373038 -0.0527727887
C  -1.8327697898 -1.1923464309  0.0544536306
H  -2.3524296631 -2.1070498171 -0.0822863019
C  -0.4364366664 -1.2154879468  0.0363666563
H   0.1185154673 -2.1123654693 -0.2286328883
14
Step 37  E=-434.0829300714  phi=38.273  theta=70.826
C  -1.8780378382  1.1906703842 -0.0622201088
C  -0.5048785654  1.1925376195 -0.0814921010
C   0.1665242074  0.0100977304  0.0047762950
C  -2.5385222815 -0.0132386390 -0.0138835337
H  -2.4128614282  2.1084664310 -0.0947150243
H   0.0650822915  2.0692587237 -0.1447949650
H  -3.5940860001 -0.0755271018 -0.0792075667
N   1.5946169947  0.0000346892  0.0108519129
O   2.2379715769 -1.0256485340  0.1320988597
O   2.1457936964  1.0599441413 -0.0541888763
C  -1.8287676248 -1.1968446675  0.0580019641
H  -2.3623840225 -2.0980213163 -0.0920960246
C  -0.4339023208 -1.2195056008  0.0281564971
H   0.1317214882 -2.1169373678 -0.1827337175
14
Step 38  E=-434.0855058261  phi=38.246  theta=70.812
C  -1.8774723257  1.1924798146 -0.0630718844
C  -0.5037668686  1.2004406016 -0.0815242753
C   0.1661111737  0.0069431746  0.0085932906
C  -2.5430732510 -0.0110926428 -0.0116823285
H  -2.4113134024  2.1076662718 -0.1021504614
H   0.0705857639  2.0726009168 -0.1480721871
H  -3.5966003152 -0.0745541617 -0.0840900745
N   1.6045604729 -0.0005416551  0.0108482704
O   2.2337031106 -1.0263670540  0.1320231295
O   2.1386802791  1.0605778590 -0.0556608466
C  -1.8245603843 -1.2013468427  0.0612711914
H  -2.3726707936 -2.0905895082 -0.1004536666
C  -0.4318038219 -1.2235563333  0.0197526338
H   0.1440055909 -2.1203276260 -0.1341625823
14
Step 39  E=-434.0866951772  phi=38.206  theta=70.809
C  -1.8769027097  1.1942779386 -0.0639212443
C  -0.5026832789  1.2081296432 -0.0814467051
C   0.1657215501  0.0035205864  0.0123129315
C  -2.5472841762 -0.0091787282 -0.0093839357
H  -2.4106001968  2.1082226827 -0.1100563849
H   0.0765281678  2.0786926159 -0.1512949444
H  -3.6005088217 -0.0727389768 -0.0885344904
N   1.6153295649 -0.0011065261  0.0109833680
O   2.2290386820 -1.0267968354  0.1318737390
O   2.1314296032  1.0611100564 -0.0571917084
C  -1.8202848722 -1.2057249297  0.0642111273
H  -2.3830596879 -2.0851423900 -0.1071831028
C  -0.4301341429 -1.2275845325  0.0112881378
H   0.1554243389 -2.1229212671 -0.0837564587
14
Step 40  E=-434.0863684578  phi=38.157  theta=70.818
C  -1.8763476014  1.1960571254 -0.0647676704
C  -0.5015841823  1.2154519123 -0.0812556223
C   0.1653889272 -0.0000356699  0.0158878899
C  -2.5510243571 -0.0075569651 -0.0070019280
H  -2.4108289034  2.1102728231 -0.1183996195
H   0.0826904962  2.0873178863 -0.1544273871
H  -3.6057373254 -0.0701205800 -0.0924478658
N   1.6265810656 -0.0016863639  0.0112605671
O   2.2241035815 -1.0270065119  0.1316610894
O   2.1241630084  1.0616253608 -0.0587853008
C  -1.8160911830 -1.2098813338  0.0667737661
H  -2.3931967445 -2.0818126073 -0.1120885436
C  -0.4288665569 -1.2315502446  0.0028922234
H   0.1659451182 -2.1249660770 -0.0323167938
14
Step 41  E=-434.0844705962  phi=38.106  theta=70.838
C  -1.8758330654  1.1978245976 -0.0656120934
C  -0.5004140211  1.2222946077 -0.0809507556
C   0.1651463591 -0.0035941458  0.0192715066
C  -2.5541984745 -0.0062748462 -0.0045535155
H  -2.4119709986  2.1137162919 -0.1271256711
H   0.0886604894  2.0979138377 -0.1574064954
H  -3.6119616706 -0.0667462864 -0.0957221672
N   1.6379576574 -0.0023021116  0.0116816987
O   2.2190339445 -1.0270795062  0.1313976647
O   2.1170063906  1.0622173029 -0.0604461556
C  -1.8121367754 -1.2137477604  0.0689143526
H  -2.4026240679 -2.0805031755 -0.1149577725
C  -0.4279530552 -1.2354342550 -0.0053101960
H   0.1753992010 -2.1265023579  0.0193808936
14
Step 42  E=-434.0810836592  phi=38.055  theta=70.869
C  -1.8753900264  1.1996002023 -0.0664570872
C  -0.4991127471  1.2285794836 -0.0805350896
C   0.1650242237 -0.0070307130  0.0224190921
C  -2.5567450405 -0.0053670146 -0.0020593797
H  -2.4138715919  2.1182333060 -0.1361552380
H   0.0939010888  2.1096741891 -0.1601478999
H  -3.6186519655 -0.0626731637 -0.0982362439
N   1.6491003467 -0.0029652513  0.0122467879
O   2.2139726859 -1.0271115274  0.1310975985
O   2.1100854944  1.0629828632 -0.0621792357
C  -1.8085781586 -1.2172801303  0.0705931111
H  -2.4108270064 -2.0809508968 -0.1155765884
C  -0.4273267585 -1.2392373829 -0.0131974850
H   0.1834749775 -2.1273560514  0.0705615500
14
Step 43  E=-434.0764913281  phi=38.007  theta=70.910
C  -1.8750499603  1.2014111315 -0.0673067951
C  -0.4976250380  1.2342535327 -0.0800141262
C   0.1650484330 -0.0102324325  0.0252889831
C  -2.5586309337 -0.0048551839  0.0004569814
H  -2.4162809426  2.1233412001 -0.1453843078
H   0.0978434470  2.1216857545 -0.1625562131
H  -3.6251530337 -0.0579720733 -0.0998623069
N   1.6596613285 -0.0036744255  0.0129538935
O   2.2090645652 -1.0272065578  0.1307760588
O   2.1035209736  1.0640159837 -0.0639895581